 Entering Gaussian System, Link 0=g16
 Input=hadded-BLCChsT.gjf
 Output=hadded-BLCChsT.log
 Initial command:
 /share/apps/g16/l1.exe "/state/partition1/scr/Gau-18251.inp" -scrdir="/state/partition1/scr/"
 Entering Link 1 = /share/apps/g16/l1.exe PID=     18252.
  
 Copyright (c) 1988,1990,1992,1993,1995,1998,2003,2009,2016,
            Gaussian, Inc.  All Rights Reserved.
  
 This is part of the Gaussian(R) 16 program.  It is based on
 the Gaussian(R) 09 system (copyright 2009, Gaussian, Inc.),
 the Gaussian(R) 03 system (copyright 2003, Gaussian, Inc.),
 the Gaussian(R) 98 system (copyright 1998, Gaussian, Inc.),
 the Gaussian(R) 94 system (copyright 1995, Gaussian, Inc.),
 the Gaussian 92(TM) system (copyright 1992, Gaussian, Inc.),
 the Gaussian 90(TM) system (copyright 1990, Gaussian, Inc.),
 the Gaussian 88(TM) system (copyright 1988, Gaussian, Inc.),
 the Gaussian 86(TM) system (copyright 1986, Carnegie Mellon
 University), and the Gaussian 82(TM) system (copyright 1983,
 Carnegie Mellon University). Gaussian is a federally registered
 trademark of Gaussian, Inc.
  
 This software contains proprietary and confidential information,
 including trade secrets, belonging to Gaussian, Inc.
  
 This software is provided under written license and may be
 used, copied, transmitted, or stored only in accord with that
 written license.
  
 The following legend is applicable only to US Government
 contracts under FAR:
  
                    RESTRICTED RIGHTS LEGEND
  
 Use, reproduction and disclosure by the US Government is
 subject to restrictions as set forth in subparagraphs (a)
 and (c) of the Commercial Computer Software - Restricted
 Rights clause in FAR 52.227-19.
  
 Gaussian, Inc.
 340 Quinnipiac St., Bldg. 40, Wallingford CT 06492
  
  
 ---------------------------------------------------------------
 Warning -- This program may not be used in any manner that
 competes with the business of Gaussian, Inc. or will provide
 assistance to any competitor of Gaussian, Inc.  The licensee
 of this program is prohibited from giving any competitor of
 Gaussian, Inc. access to this program.  By using this program,
 the user acknowledges that Gaussian, Inc. is engaged in the
 business of creating and licensing software in the field of
 computational chemistry and represents and warrants to the
 licensee that it is not a competitor of Gaussian, Inc. and that
 it will not use this program in any manner prohibited above.
 ---------------------------------------------------------------
  

 Cite this work as:
 Gaussian 16, Revision A.03,
 M. J. Frisch, G. W. Trucks, H. B. Schlegel, G. E. Scuseria, 
 M. A. Robb, J. R. Cheeseman, G. Scalmani, V. Barone, 
 G. A. Petersson, H. Nakatsuji, X. Li, M. Caricato, A. V. Marenich, 
 J. Bloino, B. G. Janesko, R. Gomperts, B. Mennucci, H. P. Hratchian, 
 J. V. Ortiz, A. F. Izmaylov, J. L. Sonnenberg, D. Williams-Young, 
 F. Ding, F. Lipparini, F. Egidi, J. Goings, B. Peng, A. Petrone, 
 T. Henderson, D. Ranasinghe, V. G. Zakrzewski, J. Gao, N. Rega, 
 G. Zheng, W. Liang, M. Hada, M. Ehara, K. Toyota, R. Fukuda, 
 J. Hasegawa, M. Ishida, T. Nakajima, Y. Honda, O. Kitao, H. Nakai, 
 T. Vreven, K. Throssell, J. A. Montgomery, Jr., J. E. Peralta, 
 F. Ogliaro, M. J. Bearpark, J. J. Heyd, E. N. Brothers, K. N. Kudin, 
 V. N. Staroverov, T. A. Keith, R. Kobayashi, J. Normand, 
 K. Raghavachari, A. P. Rendell, J. C. Burant, S. S. Iyengar, 
 J. Tomasi, M. Cossi, J. M. Millam, M. Klene, C. Adamo, R. Cammi, 
 J. W. Ochterski, R. L. Martin, K. Morokuma, O. Farkas, 
 J. B. Foresman, and D. J. Fox, Gaussian, Inc., Wallingford CT, 2016.
 
 ******************************************
 Gaussian 16:  EM64L-G16RevA.03 25-Dec-2016
                23-Jun-2019 
 ******************************************
 %nprocshared=32
 Will use up to   32 processors via shared memory.
 %mem=32GB
 -----------------------------------------------------
 #p opt=modredundant wb97xd/cc-pvdz scf=(maxcycles=25)
 -----------------------------------------------------
 1/18=120,19=15,26=3,38=1/1,3;
 2/9=110,12=2,17=6,18=5,40=1/2;
 3/5=16,11=2,25=1,30=1,71=1,74=-58/1,2,3;
 4//1;
 5/5=2,7=25,38=5/2;
 6/7=2,8=2,9=2,10=2,28=1/1;
 7//1,2,3,16;
 1/18=20,19=15,26=3/3(2);
 2/9=110/2;
 99//99;
 2/9=110/2;
 3/5=16,11=2,25=1,30=1,71=1,74=-58/1,2,3;
 4/5=5,16=3,69=1/1;
 5/5=2,7=25,38=5/2;
 7//1,2,3,16;
 1/18=20,19=15,26=3/3(-5);
 2/9=110/2;
 6/7=2,8=2,9=2,10=2,19=2,28=1/1;
 99/9=1/99;
 Leave Link    1 at Sun Jun 23 09:07:07 2019, MaxMem=  4294967296 cpu:               2.0 elap:               0.1
 (Enter /share/apps/g16/l101.exe)
 --------
 basepair
 --------
 Symbolic Z-matrix:
 Charge =  0 Multiplicity = 1
 C                    -1   -23.956    156.741   163.252 
 H                    -22.865    156.617   163.423 
 H                    -24.199    156.358   162.238 
 H                    -24.501    156.135   164.006 
 N                    -1   -24.35     158.154   163.363 
 C                    -1   -24.912    158.845   162.337 
 H                    -25.082    158.302   161.407 
 C                    -1   -25.239    160.14    162.477 
 H                    -25.696    160.711   161.669 
 C                    -1   -24.083    158.791   164.571 
 O                    -1   -23.548    158.126   165.475 
 N                    -1   -24.41     160.098   164.737 
 C                    -1   -24.97     160.764   163.731 
 N                    -1   -25.268    162.05    163.923 
 H                    -25.06     162.471   164.817 
 H                    -25.694    162.596   163.188 
 H                    -28.542    169.471   163.421 
 O                    -1   -27.994    168.683   163.438 
 C                    -1   -28.43     167.929   164.551 
 H                    -29.475    167.597   164.374 
 H                    -28.213    168.5     165.479 
 C                    -1   -27.644    166.655   164.693 
 H                    -27.858    166.187   165.678 
 O                    -1   -28.042    165.711   163.676 
 C                    -1   -26.94     164.94    163.28 
 H                    -27.215    163.883   163.485 
 N                    -1   -26.716    165.181   161.837 
 C                    -1   -26.832    166.444   161.316 
 H                    -27.063    167.231   162.033 
 C                    -1   -26.672    166.695   160.014 
 H                    -26.719    167.696   159.584 
 C                    -1   -26.494    164.091   160.99 
 O                    -1   -26.413    162.948   161.483 
 N                    -1   -26.344    164.329   159.662 
 C                    -1   -26.43     165.575   159.181 
 N                    -1   -26.271    165.752   157.865 
 H                    -26.093    164.947   157.282 
 H                    -26.328    166.675   157.458 
 C                    -1   -25.756    165.353   164.153 
 H                    -24.838    165.36    163.527 
 O                    -1   -25.764    164.528   165.306 
 H                    -26.001    163.611   165.147 
 C                    -1   -26.14     166.773   164.533 
 H                    -25.938    167.45    163.675 
 O                    -1   -25.525    167.224   165.727 
 H                    -24.636    166.893   165.875 
 
 Add virtual bond connecting atoms H42        and H15        Dist= 2.86D+00.
 The following ModRedundant input section has been read:
 
 ITRead=  2  0  0  0  2  2  0  2  0  2  2  2  2  2  0  0  0  2  2  0
 ITRead=  0  2  0  2  2  0  2  2  0  2  0  2  2  2  2  2  0  0  2  0
 ITRead=  2  0  2  0  2  0
 MicOpt= -2 -1 -1 -1 -2 -2 -1 -2 -1 -2 -2 -2 -2 -2 -1 -1 -1 -2 -2 -1
 MicOpt= -1 -2 -1 -2 -2 -1 -2 -2 -1 -2 -1 -2 -2 -2 -2 -2 -1 -1 -2 -1
 MicOpt= -2 -1 -2 -1 -2 -1
 NAtoms=     46 NQM=       20 NQMF=      26 NMMI=      0 NMMIF=      0
                NMic=       0 NMicF=      0.
                    Isotopes and Nuclear Properties:
 (Nuclear quadrupole moments (NQMom) in fm**2, nuclear magnetic moments (NMagM)
  in nuclear magnetons)

  Atom         1           2           3           4           5           6           7           8           9          10
 IAtWgt=          12           1           1           1          14          12           1          12           1          12
 AtmWgt=  12.0000000   1.0078250   1.0078250   1.0078250  14.0030740  12.0000000   1.0078250  12.0000000   1.0078250  12.0000000
 NucSpn=           0           1           1           1           2           0           1           0           1           0
 AtZEff=  -0.0000000  -0.0000000  -0.0000000  -0.0000000  -0.0000000  -0.0000000  -0.0000000  -0.0000000  -0.0000000  -0.0000000
 NQMom=    0.0000000   0.0000000   0.0000000   0.0000000   2.0440000   0.0000000   0.0000000   0.0000000   0.0000000   0.0000000
 NMagM=    0.0000000   2.7928460   2.7928460   2.7928460   0.4037610   0.0000000   2.7928460   0.0000000   2.7928460   0.0000000
 AtZNuc=   6.0000000   1.0000000   1.0000000   1.0000000   7.0000000   6.0000000   1.0000000   6.0000000   1.0000000   6.0000000

  Atom        11          12          13          14          15          16          17          18          19          20
 IAtWgt=          16          14          12          14           1           1           1          16          12           1
 AtmWgt=  15.9949146  14.0030740  12.0000000  14.0030740   1.0078250   1.0078250   1.0078250  15.9949146  12.0000000   1.0078250
 NucSpn=           0           2           0           2           1           1           1           0           0           1
 AtZEff=  -0.0000000  -0.0000000  -0.0000000  -0.0000000  -0.0000000  -0.0000000  -0.0000000  -0.0000000  -0.0000000  -0.0000000
 NQMom=    0.0000000   2.0440000   0.0000000   2.0440000   0.0000000   0.0000000   0.0000000   0.0000000   0.0000000   0.0000000
 NMagM=    0.0000000   0.4037610   0.0000000   0.4037610   2.7928460   2.7928460   2.7928460   0.0000000   0.0000000   2.7928460
 AtZNuc=   8.0000000   7.0000000   6.0000000   7.0000000   1.0000000   1.0000000   1.0000000   8.0000000   6.0000000   1.0000000

  Atom        21          22          23          24          25          26          27          28          29          30
 IAtWgt=           1          12           1          16          12           1          14          12           1          12
 AtmWgt=   1.0078250  12.0000000   1.0078250  15.9949146  12.0000000   1.0078250  14.0030740  12.0000000   1.0078250  12.0000000
 NucSpn=           1           0           1           0           0           1           2           0           1           0
 AtZEff=  -0.0000000  -0.0000000  -0.0000000  -0.0000000  -0.0000000  -0.0000000  -0.0000000  -0.0000000  -0.0000000  -0.0000000
 NQMom=    0.0000000   0.0000000   0.0000000   0.0000000   0.0000000   0.0000000   2.0440000   0.0000000   0.0000000   0.0000000
 NMagM=    2.7928460   0.0000000   2.7928460   0.0000000   0.0000000   2.7928460   0.4037610   0.0000000   2.7928460   0.0000000
 AtZNuc=   1.0000000   6.0000000   1.0000000   8.0000000   6.0000000   1.0000000   7.0000000   6.0000000   1.0000000   6.0000000

  Atom        31          32          33          34          35          36          37          38          39          40
 IAtWgt=           1          12          16          14          12          14           1           1          12           1
 AtmWgt=   1.0078250  12.0000000  15.9949146  14.0030740  12.0000000  14.0030740   1.0078250   1.0078250  12.0000000   1.0078250
 NucSpn=           1           0           0           2           0           2           1           1           0           1
 AtZEff=  -0.0000000  -0.0000000  -0.0000000  -0.0000000  -0.0000000  -0.0000000  -0.0000000  -0.0000000  -0.0000000  -0.0000000
 NQMom=    0.0000000   0.0000000   0.0000000   2.0440000   0.0000000   2.0440000   0.0000000   0.0000000   0.0000000   0.0000000
 NMagM=    2.7928460   0.0000000   0.0000000   0.4037610   0.0000000   0.4037610   2.7928460   2.7928460   0.0000000   2.7928460
 AtZNuc=   1.0000000   6.0000000   8.0000000   7.0000000   6.0000000   7.0000000   1.0000000   1.0000000   6.0000000   1.0000000

  Atom        41          42          43          44          45          46
 IAtWgt=          16           1          12           1          16           1
 AtmWgt=  15.9949146   1.0078250  12.0000000   1.0078250  15.9949146   1.0078250
 NucSpn=           0           1           0           1           0           1
 AtZEff=  -0.0000000  -0.0000000  -0.0000000  -0.0000000  -0.0000000  -0.0000000
 NQMom=    0.0000000   0.0000000   0.0000000   0.0000000   0.0000000   0.0000000
 NMagM=    0.0000000   2.7928460   0.0000000   2.7928460   0.0000000   2.7928460
 AtZNuc=   8.0000000   1.0000000   6.0000000   1.0000000   8.0000000   1.0000000
 Leave Link  101 at Sun Jun 23 09:07:07 2019, MaxMem=  4294967296 cpu:              18.7 elap:               0.6
 (Enter /share/apps/g16/l103.exe)

 GradGradGradGradGradGradGradGradGradGradGradGradGradGradGradGradGradGrad
 Berny optimization.
 Initialization pass.
                           ----------------------------
                           !    Initial Parameters    !
                           ! (Angstroms and Degrees)  !
 --------------------------                            --------------------------
 ! Name  Definition              Value          Derivative Info.                !
 --------------------------------------------------------------------------------
 ! X1    R(1,-1)               -23.956          Frozen                          !
 ! Y1    R(1,-2)               156.741          Frozen                          !
 ! Z1    R(1,-3)               163.252          Frozen                          !
 ! X5    R(5,-1)               -24.35           Frozen                          !
 ! Y5    R(5,-2)               158.154          Frozen                          !
 ! Z5    R(5,-3)               163.363          Frozen                          !
 ! X6    R(6,-1)               -24.912          Frozen                          !
 ! Y6    R(6,-2)               158.845          Frozen                          !
 ! Z6    R(6,-3)               162.337          Frozen                          !
 ! X8    R(8,-1)               -25.239          Frozen                          !
 ! Y8    R(8,-2)               160.14           Frozen                          !
 ! Z8    R(8,-3)               162.477          Frozen                          !
 ! X10   R(10,-1)              -24.083          Frozen                          !
 ! Y10   R(10,-2)              158.791          Frozen                          !
 ! Z10   R(10,-3)              164.571          Frozen                          !
 ! X11   R(11,-1)              -23.548          Frozen                          !
 ! Y11   R(11,-2)              158.126          Frozen                          !
 ! Z11   R(11,-3)              165.475          Frozen                          !
 ! X12   R(12,-1)              -24.41           Frozen                          !
 ! Y12   R(12,-2)              160.098          Frozen                          !
 ! Z12   R(12,-3)              164.737          Frozen                          !
 ! X13   R(13,-1)              -24.97           Frozen                          !
 ! Y13   R(13,-2)              160.764          Frozen                          !
 ! Z13   R(13,-3)              163.731          Frozen                          !
 ! X14   R(14,-1)              -25.268          Frozen                          !
 ! Y14   R(14,-2)              162.05           Frozen                          !
 ! Z14   R(14,-3)              163.923          Frozen                          !
 ! X18   R(18,-1)              -27.994          Frozen                          !
 ! Y18   R(18,-2)              168.683          Frozen                          !
 ! Z18   R(18,-3)              163.438          Frozen                          !
 ! X19   R(19,-1)              -28.43           Frozen                          !
 ! Y19   R(19,-2)              167.929          Frozen                          !
 ! Z19   R(19,-3)              164.551          Frozen                          !
 ! X22   R(22,-1)              -27.644          Frozen                          !
 ! Y22   R(22,-2)              166.655          Frozen                          !
 ! Z22   R(22,-3)              164.693          Frozen                          !
 ! X24   R(24,-1)              -28.042          Frozen                          !
 ! Y24   R(24,-2)              165.711          Frozen                          !
 ! Z24   R(24,-3)              163.676          Frozen                          !
 ! X25   R(25,-1)              -26.94           Frozen                          !
 ! Y25   R(25,-2)              164.94           Frozen                          !
 ! Z25   R(25,-3)              163.28           Frozen                          !
 ! X27   R(27,-1)              -26.716          Frozen                          !
 ! Y27   R(27,-2)              165.181          Frozen                          !
 ! Z27   R(27,-3)              161.837          Frozen                          !
 ! X28   R(28,-1)              -26.832          Frozen                          !
 ! Y28   R(28,-2)              166.444          Frozen                          !
 ! Z28   R(28,-3)              161.316          Frozen                          !
 ! X30   R(30,-1)              -26.672          Frozen                          !
 ! Y30   R(30,-2)              166.695          Frozen                          !
 ! Z30   R(30,-3)              160.014          Frozen                          !
 ! X32   R(32,-1)              -26.494          Frozen                          !
 ! Y32   R(32,-2)              164.091          Frozen                          !
 ! Z32   R(32,-3)              160.99           Frozen                          !
 ! X33   R(33,-1)              -26.413          Frozen                          !
 ! Y33   R(33,-2)              162.948          Frozen                          !
 ! Z33   R(33,-3)              161.483          Frozen                          !
 ! X34   R(34,-1)              -26.344          Frozen                          !
 ! Y34   R(34,-2)              164.329          Frozen                          !
 ! Z34   R(34,-3)              159.662          Frozen                          !
 ! X35   R(35,-1)              -26.43           Frozen                          !
 ! Y35   R(35,-2)              165.575          Frozen                          !
 ! Z35   R(35,-3)              159.181          Frozen                          !
 ! X36   R(36,-1)              -26.271          Frozen                          !
 ! Y36   R(36,-2)              165.752          Frozen                          !
 ! Z36   R(36,-3)              157.865          Frozen                          !
 ! X39   R(39,-1)              -25.756          Frozen                          !
 ! Y39   R(39,-2)              165.353          Frozen                          !
 ! Z39   R(39,-3)              164.153          Frozen                          !
 ! X41   R(41,-1)              -25.764          Frozen                          !
 ! Y41   R(41,-2)              164.528          Frozen                          !
 ! Z41   R(41,-3)              165.306          Frozen                          !
 ! X43   R(43,-1)              -26.14           Frozen                          !
 ! Y43   R(43,-2)              166.773          Frozen                          !
 ! Z43   R(43,-3)              164.533          Frozen                          !
 ! X45   R(45,-1)              -25.525          Frozen                          !
 ! Y45   R(45,-2)              167.224          Frozen                          !
 ! Z45   R(45,-3)              165.727          Frozen                          !
 ! R1    R(1,2)                  1.1113         estimate D2E/DX2                !
 ! R2    R(1,3)                  1.1108         estimate D2E/DX2                !
 ! R3    R(1,4)                  1.1103         estimate D2E/DX2                !
 ! R4    R(6,7)                  1.0903         estimate D2E/DX2                !
 ! R5    R(8,9)                  1.0898         estimate D2E/DX2                !
 ! R6    R(14,15)                1.0098         estimate D2E/DX2                !
 ! R7    R(14,16)                1.0099         estimate D2E/DX2                !
 ! R8    R(15,42)                1.5146         estimate D2E/DX2                !
 ! R9    R(17,18)                0.96           estimate D2E/DX2                !
 ! R10   R(19,20)                1.1107         estimate D2E/DX2                !
 ! R11   R(19,21)                1.111          estimate D2E/DX2                !
 ! R12   R(22,23)                1.1113         estimate D2E/DX2                !
 ! R13   R(25,26)                1.1113         estimate D2E/DX2                !
 ! R14   R(28,29)                1.0894         estimate D2E/DX2                !
 ! R15   R(30,31)                1.0905         estimate D2E/DX2                !
 ! R16   R(36,37)                1.0098         estimate D2E/DX2                !
 ! R17   R(36,38)                1.0104         estimate D2E/DX2                !
 ! R18   R(39,40)                1.1111         estimate D2E/DX2                !
 ! R19   R(41,42)                0.9604         estimate D2E/DX2                !
 ! R20   R(43,44)                1.1114         estimate D2E/DX2                !
 ! R21   R(45,46)                0.9601         estimate D2E/DX2                !
 ! A1    A(2,1,3)              108.4672         estimate D2E/DX2                !
 ! A2    A(2,1,4)              108.4518         estimate D2E/DX2                !
 ! A3    A(2,1,5)              111.0088         estimate D2E/DX2                !
 ! A4    A(3,1,4)              108.9254         estimate D2E/DX2                !
 ! A5    A(3,1,5)              109.9659         estimate D2E/DX2                !
 ! A6    A(4,1,5)              109.9705         estimate D2E/DX2                !
 ! A7    A(5,6,7)              117.0873         estimate D2E/DX2                !
 ! A8    A(7,6,8)              122.0879         estimate D2E/DX2                !
 ! A9    A(6,8,9)              122.0076         estimate D2E/DX2                !
 ! A10   A(9,8,13)             120.1131         estimate D2E/DX2                !
 ! A11   A(13,14,15)           118.9027         estimate D2E/DX2                !
 ! A12   A(13,14,16)           120.711          estimate D2E/DX2                !
 ! A13   A(15,14,16)           120.3863         estimate D2E/DX2                !
 ! A14   A(14,15,42)           112.2541         estimate D2E/DX2                !
 ! A15   A(17,18,19)           106.0081         estimate D2E/DX2                !
 ! A16   A(18,19,20)           108.9192         estimate D2E/DX2                !
 ! A17   A(18,19,21)           108.8659         estimate D2E/DX2                !
 ! A18   A(20,19,21)           118.0679         estimate D2E/DX2                !
 ! A19   A(20,19,22)           104.6908         estimate D2E/DX2                !
 ! A20   A(21,19,22)           104.7423         estimate D2E/DX2                !
 ! A21   A(19,22,23)           109.8672         estimate D2E/DX2                !
 ! A22   A(23,22,24)           107.2146         estimate D2E/DX2                !
 ! A23   A(23,22,43)           108.4897         estimate D2E/DX2                !
 ! A24   A(24,25,26)           106.0486         estimate D2E/DX2                !
 ! A25   A(26,25,27)           111.8511         estimate D2E/DX2                !
 ! A26   A(26,25,39)           110.0881         estimate D2E/DX2                !
 ! A27   A(27,28,29)           115.6762         estimate D2E/DX2                !
 ! A28   A(29,28,30)           122.0892         estimate D2E/DX2                !
 ! A29   A(28,30,31)           123.4879         estimate D2E/DX2                !
 ! A30   A(31,30,35)           120.0818         estimate D2E/DX2                !
 ! A31   A(35,36,37)           118.9209         estimate D2E/DX2                !
 ! A32   A(35,36,38)           120.7039         estimate D2E/DX2                !
 ! A33   A(37,36,38)           120.3751         estimate D2E/DX2                !
 ! A34   A(25,39,40)           108.6638         estimate D2E/DX2                !
 ! A35   A(40,39,41)           117.807          estimate D2E/DX2                !
 ! A36   A(40,39,43)           110.1108         estimate D2E/DX2                !
 ! A37   A(39,41,42)           114.9838         estimate D2E/DX2                !
 ! A38   A(15,42,41)           126.9724         estimate D2E/DX2                !
 ! A39   A(22,43,44)           107.9974         estimate D2E/DX2                !
 ! A40   A(39,43,44)           109.2865         estimate D2E/DX2                !
 ! A41   A(44,43,45)           112.197          estimate D2E/DX2                !
 ! A42   A(43,45,46)           114.9675         estimate D2E/DX2                !
 ! D1    D(2,1,5,6)            119.366          estimate D2E/DX2                !
 ! D2    D(2,1,5,10)           -58.5863         estimate D2E/DX2                !
 ! D3    D(3,1,5,6)             -0.6694         estimate D2E/DX2                !
 ! D4    D(3,1,5,10)          -178.6218         estimate D2E/DX2                !
 ! D5    D(4,1,5,6)           -120.6147         estimate D2E/DX2                !
 ! D6    D(4,1,5,10)            61.433          estimate D2E/DX2                !
 ! D7    D(1,5,6,7)              0.9684         estimate D2E/DX2                !
 ! D8    D(10,5,6,7)           178.8585         estimate D2E/DX2                !
 ! D9    D(5,6,8,9)           -179.6267         estimate D2E/DX2                !
 ! D10   D(7,6,8,9)              0.3528         estimate D2E/DX2                !
 ! D11   D(7,6,8,13)          -179.6554         estimate D2E/DX2                !
 ! D12   D(9,8,13,12)         -179.8112         estimate D2E/DX2                !
 ! D13   D(9,8,13,14)           -0.3553         estimate D2E/DX2                !
 ! D14   D(8,13,14,15)        -179.4442         estimate D2E/DX2                !
 ! D15   D(8,13,14,16)           0.5138         estimate D2E/DX2                !
 ! D16   D(12,13,14,15)          0.032          estimate D2E/DX2                !
 ! D17   D(12,13,14,16)        179.99           estimate D2E/DX2                !
 ! D18   D(13,14,15,42)       -151.6008         estimate D2E/DX2                !
 ! D19   D(16,14,15,42)         28.441          estimate D2E/DX2                !
 ! D20   D(14,15,42,41)       -119.8206         estimate D2E/DX2                !
 ! D21   D(17,18,19,20)         65.022          estimate D2E/DX2                !
 ! D22   D(17,18,19,21)        -64.975          estimate D2E/DX2                !
 ! D23   D(17,18,19,22)       -179.992          estimate D2E/DX2                !
 ! D24   D(18,19,22,23)        168.5081         estimate D2E/DX2                !
 ! D25   D(20,19,22,23)        -73.919          estimate D2E/DX2                !
 ! D26   D(20,19,22,24)         43.9326         estimate D2E/DX2                !
 ! D27   D(20,19,22,43)        162.4241         estimate D2E/DX2                !
 ! D28   D(21,19,22,23)         50.9683         estimate D2E/DX2                !
 ! D29   D(21,19,22,24)        168.8199         estimate D2E/DX2                !
 ! D30   D(21,19,22,43)        -72.6886         estimate D2E/DX2                !
 ! D31   D(23,22,24,25)        -94.4042         estimate D2E/DX2                !
 ! D32   D(19,22,43,44)        -42.3219         estimate D2E/DX2                !
 ! D33   D(23,22,43,39)         78.3157         estimate D2E/DX2                !
 ! D34   D(23,22,43,44)       -166.6888         estimate D2E/DX2                !
 ! D35   D(23,22,43,45)        -42.9961         estimate D2E/DX2                !
 ! D36   D(24,22,43,44)         79.1951         estimate D2E/DX2                !
 ! D37   D(22,24,25,26)        121.046          estimate D2E/DX2                !
 ! D38   D(26,25,27,28)        157.0487         estimate D2E/DX2                !
 ! D39   D(26,25,27,32)        -17.6751         estimate D2E/DX2                !
 ! D40   D(24,25,39,40)       -141.6855         estimate D2E/DX2                !
 ! D41   D(26,25,39,40)        103.2845         estimate D2E/DX2                !
 ! D42   D(26,25,39,41)        -25.3295         estimate D2E/DX2                !
 ! D43   D(26,25,39,43)       -140.6615         estimate D2E/DX2                !
 ! D44   D(27,25,39,40)        -22.812          estimate D2E/DX2                !
 ! D45   D(25,27,28,29)          1.8186         estimate D2E/DX2                !
 ! D46   D(32,27,28,29)        176.4949         estimate D2E/DX2                !
 ! D47   D(27,28,30,31)       -177.3933         estimate D2E/DX2                !
 ! D48   D(29,28,30,31)          2.5834         estimate D2E/DX2                !
 ! D49   D(29,28,30,35)       -177.4332         estimate D2E/DX2                !
 ! D50   D(31,30,35,34)        179.0182         estimate D2E/DX2                !
 ! D51   D(31,30,35,36)         -0.5536         estimate D2E/DX2                !
 ! D52   D(30,35,36,37)        179.604          estimate D2E/DX2                !
 ! D53   D(30,35,36,38)         -0.4257         estimate D2E/DX2                !
 ! D54   D(34,35,36,37)          0.0135         estimate D2E/DX2                !
 ! D55   D(34,35,36,38)        179.9838         estimate D2E/DX2                !
 ! D56   D(25,39,41,42)         38.9393         estimate D2E/DX2                !
 ! D57   D(40,39,41,42)        -84.2442         estimate D2E/DX2                !
 ! D58   D(43,39,41,42)        148.6521         estimate D2E/DX2                !
 ! D59   D(25,39,43,44)        -77.413          estimate D2E/DX2                !
 ! D60   D(40,39,43,22)        151.6163         estimate D2E/DX2                !
 ! D61   D(40,39,43,44)         37.5743         estimate D2E/DX2                !
 ! D62   D(40,39,43,45)        -88.4768         estimate D2E/DX2                !
 ! D63   D(41,39,43,44)        168.8753         estimate D2E/DX2                !
 ! D64   D(39,41,42,15)         90.2582         estimate D2E/DX2                !
 ! D65   D(22,43,45,46)        148.6364         estimate D2E/DX2                !
 ! D66   D(39,43,45,46)         34.4077         estimate D2E/DX2                !
 ! D67   D(44,43,45,46)        -90.0849         estimate D2E/DX2                !
 --------------------------------------------------------------------------------
 Trust Radius=3.00D-01 FncErr=1.00D-07 GrdErr=1.00D-06 EigMax=2.50D+02 EigMin=1.00D-04
 Number of steps in this run=    218 maximum allowed number of steps=    276.
 GradGradGradGradGradGradGradGradGradGradGradGradGradGradGradGradGradGrad

 Leave Link  103 at Sun Jun 23 09:07:07 2019, MaxMem=  4294967296 cpu:               0.5 elap:               0.0
 (Enter /share/apps/g16/l202.exe)
                          Input orientation:                          
 ---------------------------------------------------------------------
 Center     Atomic      Atomic             Coordinates (Angstroms)
 Number     Number       Type             X           Y           Z
 ---------------------------------------------------------------------
      1          6           0      -23.956000  156.741000  163.252000
      2          1           0      -22.865000  156.617000  163.423000
      3          1           0      -24.199000  156.358000  162.238000
      4          1           0      -24.501000  156.135000  164.006000
      5          7           0      -24.350000  158.154000  163.363000
      6          6           0      -24.912000  158.845000  162.337000
      7          1           0      -25.082000  158.302000  161.407000
      8          6           0      -25.239000  160.140000  162.477000
      9          1           0      -25.696000  160.711000  161.669000
     10          6           0      -24.083000  158.791000  164.571000
     11          8           0      -23.548000  158.126000  165.475000
     12          7           0      -24.410000  160.098000  164.737000
     13          6           0      -24.970000  160.764000  163.731000
     14          7           0      -25.268000  162.050000  163.923000
     15          1           0      -25.060000  162.471000  164.817000
     16          1           0      -25.694000  162.596000  163.188000
     17          1           0      -28.542000  169.471000  163.421000
     18          8           0      -27.994000  168.683000  163.438000
     19          6           0      -28.430000  167.929000  164.551000
     20          1           0      -29.475000  167.597000  164.374000
     21          1           0      -28.213000  168.500000  165.479000
     22          6           0      -27.644000  166.655000  164.693000
     23          1           0      -27.858000  166.187000  165.678000
     24          8           0      -28.042000  165.711000  163.676000
     25          6           0      -26.940000  164.940000  163.280000
     26          1           0      -27.215000  163.883000  163.485000
     27          7           0      -26.716000  165.181000  161.837000
     28          6           0      -26.832000  166.444000  161.316000
     29          1           0      -27.063000  167.231000  162.033000
     30          6           0      -26.672000  166.695000  160.014000
     31          1           0      -26.719000  167.696000  159.584000
     32          6           0      -26.494000  164.091000  160.990000
     33          8           0      -26.413000  162.948000  161.483000
     34          7           0      -26.344000  164.329000  159.662000
     35          6           0      -26.430000  165.575000  159.181000
     36          7           0      -26.271000  165.752000  157.865000
     37          1           0      -26.093000  164.947000  157.282000
     38          1           0      -26.328000  166.675000  157.458000
     39          6           0      -25.756000  165.353000  164.153000
     40          1           0      -24.838000  165.360000  163.527000
     41          8           0      -25.764000  164.528000  165.306000
     42          1           0      -26.001000  163.611000  165.147000
     43          6           0      -26.140000  166.773000  164.533000
     44          1           0      -25.938000  167.450000  163.675000
     45          8           0      -25.525000  167.224000  165.727000
     46          1           0      -24.636000  166.893000  165.875000
 ---------------------------------------------------------------------
                    Distance matrix (angstroms):
                    1          2          3          4          5
     1  C    0.000000
     2  H    1.111260   0.000000
     3  H    1.110826   1.803015   0.000000
     4  H    1.110305   1.802418   1.807417   0.000000
     5  N    1.471097   2.138035   2.124627   2.124291   0.000000
     6  C    2.485554   3.214590   2.589081   3.209140   1.358676
     7  H    2.666200   3.437815   2.291154   3.433402   2.093720
     8  C    3.714824   4.352278   3.929662   4.350001   2.349364
     9  H    4.614584   5.277491   4.638252   5.275355   3.349567
    10  C    2.440981   2.743666   3.372808   2.747414   1.391518
    11  O    2.650739   2.637096   3.745370   2.651462   2.259321
    12  N    3.698755   4.028769   4.503013   4.030882   2.381305
    13  C    4.176382   4.660847   4.715541   4.660818   2.707753
    14  N    5.509725   5.961703   6.031654   5.965099   4.041675
    15  H    6.041601   6.405511   6.690391   6.412106   4.610283
    16  H    6.107845   6.618679   6.484610   6.620944   4.644171
    17  H   13.531920  14.051820  13.864051  13.947071  12.068584
    18  O   12.607593  13.110882  12.951743  13.037484  11.142002
    19  C   12.119217  12.657131  12.535524  12.443171  10.658723
    20  H   12.229922  12.851338  12.598166  12.500142  10.791571
    21  H   12.702585  13.192192  13.192590  12.993918  11.244552
    22  C   10.675449  11.189870  11.132082  11.000946   9.213378
    23  H   10.504189  11.027238  11.037714  10.728827   9.066112
    24  O    9.865905  10.467386  10.213476  10.215055   8.416477
    25  C    8.725173   9.268139   9.069155   9.165360   7.263937
    26  H    7.853887   8.468831   8.202249   8.226101   6.406602
    27  N    8.991853   9.523009   9.183758   9.562474   7.570030
    28  C   10.303770  10.804928  10.464711  10.906197   8.892392
    29  H   11.008157  11.498361  11.245739  11.557586   9.566671
    30  C   10.814038  11.299585  10.858889  11.496213   9.463412
    31  H   11.878570  12.342426  11.914040  12.574988  10.532937
    32  C    8.098184   8.657356   8.162341   8.738778   6.743577
    33  O    6.906016   7.512221   6.992848   7.512539   5.547324
    34  N    8.727450   9.258699   8.647175   9.455613   7.470212
    35  C   10.036597  10.533259   9.963719  10.775679   8.768510
    36  N   10.750680  11.222318  10.567097  11.546925   9.573288
    37  H   10.370444  10.840699  10.095548  11.198124   9.282320
    38  H   11.742282  12.195776  11.568126  12.542162  10.554096
    39  C    8.844114   9.230844   9.327459   9.304201   7.377434
    40  H    8.668374   8.963459   9.116241   9.243573   7.224367
    41  O    8.253796   8.633297   8.866270   8.586479   6.811940
    42  H    7.414172   7.856380   8.019694   7.709893   5.973885
    43  C   10.346586  10.728563  10.840052  10.776414   8.880324
    44  H   10.899080  11.263247  11.319079  11.410686   9.435820
    45  O   10.884883  11.175530  11.489184  11.268378   9.446376
    46  H   10.507408  10.711906  11.153697  10.919979   9.097366
                    6          7          8          9         10
     6  C    0.000000
     7  H    1.090252   0.000000
     8  C    1.342965   2.132556   0.000000
     9  H    2.131393   2.499784   1.089841   0.000000
    10  C    2.383467   3.353806   2.746083   3.835332   0.000000
    11  O    3.496355   4.351179   3.987942   5.077575   1.243248
    12  N    2.753546   3.842668   2.407614   3.382630   1.357473
    13  C    2.372585   3.387472   1.426272   2.186716   2.320581
    14  N    3.593627   4.518004   2.395800   2.656430   3.527777
    15  H    4.395473   5.386014   3.307749   3.662240   3.815422
    16  H    3.925013   4.688810   2.597014   2.420866   4.357297
    17  H   11.281127  11.864837   9.943264   9.375864  11.630459
    18  O   10.368084  10.971320   9.027535   8.483098  10.697255
    19  C    9.989854  10.666441   8.669053   8.238944  10.119281
    20  H   10.078087  10.700400   8.783459   8.307518  10.327541
    21  H   10.676506  11.418562   9.367298   9.028838  10.589903
    22  C    8.602945   9.334573   7.289712   6.947691   8.633545
    23  H    8.587559   9.387270   7.326102   7.122703   8.377165
    24  O    7.663666   8.294772   6.350626   5.876373   8.022537
    25  C    6.492385   7.143062   5.155406   4.693325   6.902125
    26  H    5.657133   6.325767   4.350941   3.958131   6.075960
    27  N    6.606763   7.083466   5.291768   4.587976   7.432331
    28  C    7.904027   8.328442   6.604997   5.855117   8.759020
    29  H    8.662806   9.167512   7.335284   6.671700   9.303518
    30  C    8.373555   8.655114   7.147579   6.284891   9.483796
    31  H    9.443752   9.708261   8.225143   7.360977  10.541238
    32  C    5.642486   5.973287   4.404157   3.538678   6.835677
    33  O    4.451621   4.833493   3.201746   2.356449   5.678494
    34  N    6.267416   6.400187   5.166524   4.187825   7.738207
    35  C    7.586670   7.724552   6.466941   5.512476   8.976813
    36  N    8.339803   8.334386   7.336901   6.341350   9.910262
    37  H    8.011379   7.886303   7.129137   6.111225   9.750177
    38  H    9.333734   9.340998   8.311589   7.328113  10.853214
    39  C    6.809130   7.596801   5.500149   5.265170   6.784799
    40  H    6.623202   7.373554   5.339635   5.079521   6.694156
    41  O    6.468180   7.377696   5.247229   5.272749   6.023218
    42  H    5.638863   6.558784   4.444928   4.538668   5.219473
    43  C    8.317667   9.091154   7.002544   6.719187   8.242877
    44  H    8.768634   9.463745   7.440424   7.035391   8.900681
    45  O    9.059554   9.922738   7.799189   7.675661   8.633145
    46  H    8.795676   9.693669   7.583734   7.551898   8.224879
                   11         12         13         14         15
    11  O    0.000000
    12  N    2.275186   0.000000
    13  C    3.467371   1.330110   0.000000
    14  N    4.556850   2.282337   1.333966   0.000000
    15  H    4.647379   2.461713   2.025178   1.009822   0.000000
    16  H    5.460456   3.207501   2.043343   1.009860   1.752490
    17  H   12.564552  10.327556   9.416323   8.126643   7.941860
    18  O   11.634712   9.393332   8.481803   7.187697   7.007064
    19  C   10.990292   8.804519   7.998826   6.704869   6.420079
    20  H   11.226815   9.056544   8.209651   6.976493   6.779701
    21  H   11.374626   9.252404   8.568445   7.259247   6.835824
    22  C    9.493818   7.311289   6.540612   5.238731   4.919176
    23  H    9.143141   7.060461   6.445175   5.186800   4.730622
    24  O    8.998037   6.769262   5.823488   4.599892   4.548825
    25  C    7.921760   5.654088   4.639319   3.400167   3.463052
    26  H    7.109855   4.874603   3.850805   2.709713   2.900344
    27  N    8.546595   6.290034   5.113281   4.031285   4.355093
    28  C    9.862609   7.605330   6.446834   5.343200   5.584059
    29  H   10.349088   8.076491   7.006136   5.799732   5.866879
    30  C   10.630600   8.422813   7.203447   6.231173   6.596175
    31  H   11.676644   9.466493   8.264940   7.267024   7.578733
    32  C    8.023426   5.858935   4.572153   3.777730   4.396213
    33  O    6.884473   4.766867   3.450451   2.840956   3.629558
    34  N    8.949067   6.884573   5.581564   4.950529   5.628041
    35  C   10.168970   8.058974   6.780842   6.021830   6.578466
    36  N   11.112277   9.091503   7.809142   7.170089   7.782145
    37  H   10.960306   9.051095   7.768412   7.292195   7.998368
    38  H   12.045169   9.995974   8.725515   8.019380   8.569499
    39  C    7.671537   5.455987   4.674912   3.346768   3.038295
    40  H    7.601944   5.416265   4.602418   3.361222   3.171704
    41  O    6.776785   4.667117   4.156772   2.880831   2.228449
    42  H    6.017476   3.878215   3.342667   2.114754   1.514589
    43  C    9.076147   6.898561   6.174155   4.841406   4.444576
    44  H    9.792297   7.583834   6.755942   5.447055   5.183193
    45  O    9.313734   7.280330   6.784073   5.485503   4.861618
    46  H    8.843304   6.893341   6.501764   5.259694   4.566533
                   16         17         18         19         20
    16  H    0.000000
    17  H    7.445201   0.000000
    18  O    6.511841   0.959967   0.000000
    19  C    6.146898   1.914996   1.413287   0.000000
    20  H    6.380639   2.300125   2.061275   1.110666   0.000000
    21  H    6.815516   2.299227   2.060857   1.110997   1.905014
    22  C    4.747948   3.217801   2.410458   1.503674   2.083671
    23  H    4.876297   4.043088   3.356503   2.152180   2.510618
    24  O    3.931218   3.801661   2.981901   2.415718   2.469350
    25  C    2.656184   4.807936   3.891777   3.573466   3.831802
    26  H    2.014453   5.743759   4.863029   4.356914   4.437535
    27  N    3.090616   4.924168   4.057153   4.225529   4.459317
    28  C    4.427926   4.064216   3.296399   3.901801   4.203121
    29  H    4.969045   3.021851   2.224655   2.948935   3.381121
    30  C    5.275657   4.776057   4.174159   5.019730   5.261180
    31  H    6.328463   4.603968   4.177692   5.258602   5.527155
    32  C    2.776010   6.248877   5.415641   5.582030   5.712255
    33  O    1.883584   7.130078   6.261933   6.187994   6.272713
    34  N    3.982269   6.738060   5.994830   6.419791   6.533447
    35  C    5.046998   6.133267   5.497982   6.195015   6.350414
    36  N    6.215110   7.060987   6.528232   7.355488   7.485768
    37  H    6.369242   8.009463   7.447673   8.197088   8.291977
    38  H    7.062089   6.948149   6.524417   7.503437   7.654067
    39  C    2.921664   5.025489   4.075386   3.734228   4.349177
    40  H    2.913306   5.534544   4.583731   4.533299   5.217600
    41  O    2.867655   5.975262   5.072115   4.386842   4.904988
    42  H    2.227590   6.616295   5.711210   4.990028   5.343632
    43  C    4.410813   3.779597   2.878270   2.565299   3.438965
    44  H    4.884467   3.306021   2.409065   2.684563   3.608404
    45  O    5.281427   4.412361   3.669355   3.212324   4.191925
    46  H    5.177214   5.284414   4.518765   4.149784   5.115128
                   21         22         23         24         25
    21  H    0.000000
    22  C    2.084606   0.000000
    23  H    2.348530   1.111326   0.000000
    24  O    3.325443   1.443547   2.066019   0.000000
    25  C    4.373755   2.330968   2.854494   1.402020   0.000000
    26  H    5.127254   3.054061   3.245168   2.015439   1.111260
    27  N    5.149848   3.345235   4.131523   2.328325   1.480036
    28  C    4.844055   3.479654   4.488404   2.751543   2.476081
    29  H    3.848087   2.782973   3.874014   2.443008   2.611287
    30  C    5.958098   4.779061   5.809093   4.031799   3.717338
    31  H    6.134287   5.295393   6.380536   4.736562   4.615712
    32  C    6.522681   4.648527   5.313291   3.497899   2.482704
    33  O    7.073381   5.055819   5.493375   3.885493   2.734045
    34  N    7.397830   5.693087   6.475849   4.572234   3.717319
    35  C    7.169346   5.746507   6.680175   4.777244   4.179130
    36  N    8.324414   7.022971   7.984407   6.075018   5.516261
    37  H    9.181994   7.761816   8.668659   6.727966   6.057513
    38  H    8.439212   7.353739   8.375407   6.521550   6.105772
    39  C    4.206986   2.356130   2.727560   2.362518   1.527925
    40  H    5.006049   3.303062   3.798833   3.226611   2.157733
    41  O    4.669509   2.904186   2.697314   3.040670   2.378528
    42  H    5.376383   3.488768   3.219656   3.277121   2.476621
    43  C    2.859156   1.517083   2.146147   2.340918   2.360063
    44  H    3.087481   2.139810   3.048537   2.729641   2.731324
    45  O    2.985804   2.425506   2.553558   3.582047   3.634101
    46  H    3.941344   3.240653   3.304320   4.222980   3.982041
                   26         27         28         29         30
    26  H    0.000000
    27  N    2.156318   0.000000
    28  C    3.377865   1.371155   0.000000
    29  H    3.652467   2.088379   1.089412   0.000000
    30  C    4.500004   2.370118   1.335592   2.125215   0.000000
    31  H    5.477480   3.376573   2.140116   2.516379   1.090463
    32  C    2.605404   1.398139   2.399402   3.357262   2.786589
    33  O    2.350624   2.281099   3.524977   4.366817   4.032995
    34  N    3.946250   2.365357   2.728935   3.815784   2.414424
    35  C    4.690789   2.700253   2.339870   3.358114   1.416634
    36  N    5.997391   4.037431   3.564125   4.492987   2.380809
    37  H    6.392823   4.603359   4.365809   5.359996   3.294627
    38  H    6.701251   4.643083   3.897633   4.666903   2.579122
    39  C    2.176190   2.512974   3.224380   3.119220   4.446498
    40  H    2.798825   2.532790   3.168535   3.268532   4.181740
    41  O    2.416085   3.656046   4.553216   4.439160   5.790131
    42  H    2.076060   3.732590   4.836632   4.891752   6.025694
    43  C    3.256690   3.183497   3.306992   2.704014   4.550876
    44  H    3.793457   3.021902   2.715907   2.002436   3.809423
    45  O    4.364051   4.552409   4.666216   4.001391   5.850967
    46  H    4.628546   4.854152   5.080206   4.556922   6.207723
                   31         32         33         34         35
    31  H    0.000000
    32  C    3.876014   0.000000
    33  O    5.122825   1.247421   0.000000
    34  N    3.388716   1.357471   2.286474   0.000000
    35  C    2.178204   2.340691   3.492939   1.338384   0.000000
    36  N    2.633401   3.546022   4.579575   2.293353   1.337335
    37  H    3.639791   3.826591   4.663347   2.471705   2.028338
    38  H    2.390648   4.379456   5.486199   3.218942   2.046737
    39  C    5.224249   3.484517   3.653023   4.643641   5.022384
    40  H    4.954019   3.284671   3.532181   4.274251   4.633401
    41  O    6.609806   4.399060   4.187234   5.677212   6.249431
    42  H    6.939000   4.213561   3.746226   5.542418   6.295593
    43  C    5.067521   4.457722   4.899761   5.453567   5.492104
    44  H    4.172141   4.336040   5.029761   5.099965   4.894254
    45  O    6.275737   5.761408   6.089684   6.770230   6.810899
    46  H    6.675356   5.930143   6.165259   6.934892   7.054445
                   36         37         38         39         40
    36  N    0.000000
    37  H    1.009751   0.000000
    38  H    1.010360   1.752765   0.000000
    39  C    6.321659   6.891230   6.848204   0.000000
    40  H    5.853665   6.383230   6.386085   1.111148   0.000000
    41  O    7.558023   8.041665   8.155906   1.417779   2.171299
    42  H    7.595018   7.978194   8.283462   2.020551   2.652540
    43  C    6.746986   7.477532   7.078176   1.519295   2.168827
    44  H    6.062194   6.867276   6.277246   2.158476   2.366433
    45  O    8.033327   8.765009   8.326018   2.455907   2.964197
    46  H    8.254405   8.930253   8.588147   2.567350   2.811405
                   41         42         43         44         45
    41  O    0.000000
    42  H    0.960385   0.000000
    43  C    2.403941   3.224060   0.000000
    44  H    3.350899   4.112016   1.111439   0.000000
    45  O    2.739120   3.690087   1.416779   2.105314   0.000000
    46  H    2.681300   3.628324   2.019252   2.616382   0.960097
                   46
    46  H    0.000000
 Stoichiometry    C14H20N6O6
 Framework group  C1[X(C14H20N6O6)]
 Deg. of freedom   132
 Full point group                 C1      NOp   1
 Largest Abelian subgroup         C1      NOp   1
 Largest concise Abelian subgroup C1      NOp   1
                         Standard orientation:                         
 ---------------------------------------------------------------------
 Center     Atomic      Atomic             Coordinates (Angstroms)
 Number     Number       Type             X           Y           Z
 ---------------------------------------------------------------------
      1          6           0        7.154516    0.618613   -0.245669
      2          1           0        7.638474    0.452226    0.740737
      3          1           0        7.310147    1.678465   -0.539654
      4          1           0        7.646094   -0.038463   -0.993586
      5          7           0        5.715244    0.320597   -0.183955
      6          6           0        4.758610    1.249639   -0.444213
      7          1           0        5.098346    2.247219   -0.723613
      8          6           0        3.455150    0.938167   -0.357436
      9          1           0        2.671996    1.666329   -0.567683
     10          6           0        5.352817   -0.966438    0.201414
     11          8           0        6.261124   -1.777842    0.450945
     12          7           0        4.041341   -1.305303    0.290502
     13          6           0        3.111355   -0.392681    0.023221
     14          7           0        1.832081   -0.754802    0.131810
     15          1           0        1.614559   -1.700535    0.411118
     16          1           0        1.091426   -0.095929   -0.060891
     17          1           0       -6.245148   -1.229861   -0.626484
     18          8           0       -5.328503   -1.146018   -0.353959
     19          6           0       -4.618145   -2.139864   -1.064623
     20          1           0       -4.659608   -1.905803   -2.149554
     21          1           0       -4.969551   -3.139890   -0.731794
     22          6           0       -3.153474   -2.116462   -0.725170
     23          1           0       -2.657661   -3.025444   -1.128860
     24          8           0       -2.519996   -0.974989   -1.341264
     25          6           0       -1.495555   -0.491462   -0.515198
     26          1           0       -0.563364   -0.546552   -1.117596
     27          7           0       -1.832333    0.902080   -0.147601
     28          6           0       -3.121837    1.247026    0.165861
     29          1           0       -3.844840    0.432213    0.153013
     30          6           0       -3.470597    2.500354    0.468087
     31          1           0       -4.480500    2.790086    0.760083
     32          6           0       -0.843677    1.887186   -0.230765
     33          8           0        0.318406    1.554023   -0.538374
     34          7           0       -1.186653    3.168173    0.059355
     35          6           0       -2.445639    3.475438    0.393740
     36          7           0       -2.726911    4.752759    0.672671
     37          1           0       -1.986961    5.437979    0.622217
     38          1           0       -3.663772    5.030496    0.929539
     39          6           0       -1.398744   -1.427782    0.688332
     40          1           0       -1.192891   -0.820404    1.595727
     41          8           0       -0.480916   -2.457020    0.359151
     42          1           0        0.285996   -2.171174   -0.143319
     43          6           0       -2.807638   -1.993337    0.746828
     44          1           0       -3.487775   -1.238562    1.197411
     45          8           0       -2.886637   -3.245535    1.404870
     46          1           0       -2.275024   -3.358268    2.136312
 ---------------------------------------------------------------------
 Rotational constants (GHZ):           0.3022187           0.0991103           0.0780553
 Leave Link  202 at Sun Jun 23 09:07:07 2019, MaxMem=  4294967296 cpu:               0.4 elap:               0.0
 (Enter /share/apps/g16/l301.exe)
 Standard basis: CC-pVDZ (5D, 7F)
 Ernie: Thresh=  0.10000D-02 Tol=  0.10000D-05 Strict=F.
 Ernie:  52 primitive shells out of 672 were deleted.
 There are   490 symmetry adapted cartesian basis functions of A   symmetry.
 There are   464 symmetry adapted basis functions of A   symmetry.
   464 basis functions,   998 primitive gaussians,   490 cartesian basis functions
    97 alpha electrons       97 beta electrons
       nuclear repulsion energy      2424.5384314162 Hartrees.
 IExCor= 4639 DFT=T Ex+Corr=wB97XD ExCW=0 ScaHFX=  1.000000
 ScaDFX=  1.000000  1.000000  1.000000  1.000000 ScalE2=  1.000000  1.000000
 IRadAn=      5 IRanWt=     -1 IRanGd=            0 ICorTp=0 IEmpDi=121
 HFx  wShort=  0.000000 wLong=  0.200000 cFull=  0.222036 cShort=  0.000000 cLong=  0.777964
 DFx  wShort=  0.000000 wLong=  0.200000 cFull=  0.000000 cShort=  0.000000 cLong=  1.000000
 NAtoms=   46 NActive=   46 NUniq=   46 SFac= 1.00D+00 NAtFMM=   60 NAOKFM=F Big=F
 Integral buffers will be    131072 words long.
 Raffenetti 2 integral format.
 Two-electron integral symmetry is turned on.
 R6Disp:  Grimme-D2 Dispersion energy=       -0.0352137782 Hartrees.
 Nuclear repulsion after empirical dispersion term =     2424.5032176380 Hartrees.
 Leave Link  301 at Sun Jun 23 09:07:07 2019, MaxMem=  4294967296 cpu:               3.4 elap:               0.1
 (Enter /share/apps/g16/l302.exe)
 NPDir=0 NMtPBC=     1 NCelOv=     1 NCel=       1 NClECP=     1 NCelD=      1
         NCelK=      1 NCelE2=     1 NClLst=     1 CellRange=     0.0.
 One-electron integrals computed using PRISM.
 One-electron integral symmetry used in STVInt
 NBasis=   464 RedAO= T EigKep=  8.68D-04  NBF=   464
 NBsUse=   464 1.00D-06 EigRej= -1.00D+00 NBFU=   464
 Precomputing XC quadrature grid using
 IXCGrd= 4 IRadAn=           5 IRanWt=          -1 IRanGd=           0 AccXCQ= 0.00D+00.
 Generated NRdTot=       0 NPtTot=           0 NUsed=           0 NTot=          32
 NSgBfM=   483   483   483   483   483 MxSgAt=    46 MxSgA2=    46.
 Leave Link  302 at Sun Jun 23 09:07:09 2019, MaxMem=  4294967296 cpu:              49.4 elap:               1.6
 (Enter /share/apps/g16/l303.exe)
 DipDrv:  MaxL=1.
 Leave Link  303 at Sun Jun 23 09:07:10 2019, MaxMem=  4294967296 cpu:              13.9 elap:               0.5
 (Enter /share/apps/g16/l401.exe)
 ExpMin= 1.22D-01 ExpMax= 1.17D+04 ExpMxC= 4.01D+02 IAcc=3 IRadAn=         5 AccDes= 0.00D+00
 Harris functional with IExCor= 4639 and IRadAn=       5 diagonalized for initial guess.
 HarFok:  IExCor= 4639 AccDes= 0.00D+00 IRadAn=         5 IDoV= 1 UseB2=F ITyADJ=14
 ICtDFT=  3500011 ScaDFX=  1.000000  1.000000  1.000000  1.000000
 FoFCou: FMM=F IPFlag=           0 FMFlag=      100000 FMFlg1=           0
         NFxFlg=           0 DoJE=T BraDBF=F KetDBF=T FulRan=T
         wScrn=  0.000000 ICntrl=       500 IOpCl=  0 I1Cent=   200000004 NGrid=           0
         NMat0=    1 NMatS0=      1 NMatT0=    0 NMatD0=    1 NMtDS0=    0 NMtDT0=    0
 Petite list used in FoFCou.
 Harris En= -1271.37182864419    
 JPrj=0 DoOrth=F DoCkMO=F.
 Leave Link  401 at Sun Jun 23 09:07:15 2019, MaxMem=  4294967296 cpu:             160.7 elap:               5.1
 (Enter /share/apps/g16/l502.exe)
 Integral symmetry usage will be decided dynamically.
 Closed shell SCF:
 Using DIIS extrapolation, IDIIS=  1040.
 NGot=  4294967296 LenX=  4294466198 LenY=  4294225608
 Requested convergence on RMS density matrix=1.00D-08 within  25 cycles.
 Requested convergence on MAX density matrix=1.00D-06.
 Requested convergence on             energy=1.00D-06.
 No special actions if energy rises.
 Fock matrices will be formed incrementally for  20 cycles.
 Integral accuracy reduced to 1.0D-05 until final iterations.

 Cycle   1  Pass 0  IDiag  1:
 FoFJK:  IHMeth= 1 ICntrl=       0 DoSepK=T KAlg= 0 I1Cent=           0 FoldK=F
 IRaf=         1 NMat=       1 IRICut=       1 DoRegI=T DoRafI=F ISym2E= 0 IDoP0=0 IntGTp=1.
 FoFCou: FMM=F IPFlag=           0 FMFlag=      100000 FMFlg1=           0
         NFxFlg=           0 DoJE=T BraDBF=F KetDBF=F FulRan=T
         wScrn=  0.000000 ICntrl=       500 IOpCl=  0 I1Cent=           0 NGrid=           0
         NMat0=    1 NMatS0=      1 NMatT0=    0 NMatD0=    1 NMtDS0=    0 NMtDT0=    0
 Symmetry not used in FoFCou.
 E= -1324.79291717435    
 DIIS: error= 2.38D-02 at cycle   1 NSaved=   1.
 NSaved= 1 IEnMin= 1 EnMin= -1324.79291717435     IErMin= 1 ErrMin= 2.38D-02
 ErrMax= 2.38D-02  0.00D+00 EMaxC= 1.00D-01 BMatC= 5.42D-01 BMatP= 5.42D-01
 IDIUse=3 WtCom= 7.62D-01 WtEn= 2.38D-01
 Coeff-Com:  0.100D+01
 Coeff-En:   0.100D+01
 Coeff:      0.100D+01
 Gap=     0.388 Goal=   None    Shift=    0.000
 GapD=    0.388 DampG=1.000 DampE=0.500 DampFc=0.5000 IDamp=-1.
 Damping current iteration by 5.00D-01
 RMSDP=2.00D-03 MaxDP=1.23D-01              OVMax= 1.43D-01

 Cycle   2  Pass 0  IDiag  1:
 RMSU=  9.99D-04    CP:  9.95D-01
 E= -1324.91568689601     Delta-E=       -0.122769721656 Rises=F Damp=T
 DIIS: error= 1.18D-02 at cycle   2 NSaved=   2.
 NSaved= 2 IEnMin= 2 EnMin= -1324.91568689601     IErMin= 2 ErrMin= 1.18D-02
 ErrMax= 1.18D-02  0.00D+00 EMaxC= 1.00D-01 BMatC= 9.05D-02 BMatP= 5.42D-01
 IDIUse=3 WtCom= 8.82D-01 WtEn= 1.18D-01
 Coeff-Com: -0.186D+00 0.119D+01
 Coeff-En:   0.000D+00 0.100D+01
 Coeff:     -0.164D+00 0.116D+01
 Gap=     0.305 Goal=   None    Shift=    0.000
 RMSDP=6.98D-04 MaxDP=3.53D-02 DE=-1.23D-01 OVMax= 1.27D-01

 Cycle   3  Pass 0  IDiag  1:
 RMSU=  6.76D-04    CP:  9.92D-01  1.17D+00
 E= -1325.03285689007     Delta-E=       -0.117169994065 Rises=F Damp=F
 DIIS: error= 1.42D-02 at cycle   3 NSaved=   3.
 NSaved= 3 IEnMin= 3 EnMin= -1325.03285689007     IErMin= 2 ErrMin= 1.18D-02
 ErrMax= 1.42D-02  0.00D+00 EMaxC= 1.00D-01 BMatC= 3.71D-02 BMatP= 9.05D-02
 IDIUse=3 WtCom= 8.58D-01 WtEn= 1.42D-01
 Coeff-Com: -0.228D+00 0.527D+00 0.701D+00
 Coeff-En:   0.000D+00 0.000D+00 0.100D+01
 Coeff:     -0.196D+00 0.452D+00 0.744D+00
 Gap=     0.299 Goal=   None    Shift=    0.000
 RMSDP=4.10D-04 MaxDP=3.54D-02 DE=-1.17D-01 OVMax= 5.02D-02

 Cycle   4  Pass 0  IDiag  1:
 RMSU=  2.27D-04    CP:  9.91D-01  1.44D+00  7.06D-01
 E= -1325.05900630173     Delta-E=       -0.026149411658 Rises=F Damp=F
 DIIS: error= 6.20D-03 at cycle   4 NSaved=   4.
 NSaved= 4 IEnMin= 4 EnMin= -1325.05900630173     IErMin= 4 ErrMin= 6.20D-03
 ErrMax= 6.20D-03  0.00D+00 EMaxC= 1.00D-01 BMatC= 6.28D-03 BMatP= 3.71D-02
 IDIUse=3 WtCom= 9.38D-01 WtEn= 6.20D-02
 Coeff-Com: -0.898D-01 0.174D+00 0.404D+00 0.512D+00
 Coeff-En:   0.000D+00 0.000D+00 0.890D-01 0.911D+00
 Coeff:     -0.842D-01 0.163D+00 0.384D+00 0.537D+00
 Gap=     0.299 Goal=   None    Shift=    0.000
 RMSDP=1.39D-04 MaxDP=1.20D-02 DE=-2.61D-02 OVMax= 1.40D-02

 Cycle   5  Pass 0  IDiag  1:
 RMSU=  7.33D-05    CP:  9.90D-01  1.42D+00  8.28D-01  6.39D-01
 E= -1325.06369973129     Delta-E=       -0.004693429561 Rises=F Damp=F
 DIIS: error= 8.94D-04 at cycle   5 NSaved=   5.
 NSaved= 5 IEnMin= 5 EnMin= -1325.06369973129     IErMin= 5 ErrMin= 8.94D-04
 ErrMax= 8.94D-04  0.00D+00 EMaxC= 1.00D-01 BMatC= 1.89D-04 BMatP= 6.28D-03
 IDIUse=3 WtCom= 9.91D-01 WtEn= 8.94D-03
 Coeff-Com: -0.161D-01 0.255D-01 0.108D+00 0.232D+00 0.650D+00
 Coeff-En:   0.000D+00 0.000D+00 0.000D+00 0.000D+00 0.100D+01
 Coeff:     -0.159D-01 0.252D-01 0.107D+00 0.230D+00 0.653D+00
 Gap=     0.297 Goal=   None    Shift=    0.000
 RMSDP=3.09D-05 MaxDP=2.34D-03 DE=-4.69D-03 OVMax= 3.72D-03

 Cycle   6  Pass 0  IDiag  1:
 RMSU=  2.33D-05    CP:  9.90D-01  1.43D+00  8.35D-01  7.13D-01  9.26D-01
 E= -1325.06386432741     Delta-E=       -0.000164596121 Rises=F Damp=F
 DIIS: error= 2.32D-04 at cycle   6 NSaved=   6.
 NSaved= 6 IEnMin= 6 EnMin= -1325.06386432741     IErMin= 6 ErrMin= 2.32D-04
 ErrMax= 2.32D-04  0.00D+00 EMaxC= 1.00D-01 BMatC= 1.79D-05 BMatP= 1.89D-04
 IDIUse=3 WtCom= 9.98D-01 WtEn= 2.32D-03
 Coeff-Com:  0.113D-01-0.235D-01-0.305D-01-0.119D-01 0.224D+00 0.831D+00
 Coeff-En:   0.000D+00 0.000D+00 0.000D+00 0.000D+00 0.000D+00 0.100D+01
 Coeff:      0.113D-01-0.235D-01-0.305D-01-0.119D-01 0.224D+00 0.831D+00
 Gap=     0.297 Goal=   None    Shift=    0.000
 RMSDP=1.61D-05 MaxDP=5.64D-04 DE=-1.65D-04 OVMax= 2.58D-03

 Cycle   7  Pass 0  IDiag  1:
 RMSU=  9.96D-06    CP:  9.90D-01  1.44D+00  8.43D-01  7.37D-01  1.06D+00
                    CP:  1.02D+00
 E= -1325.06389431235     Delta-E=       -0.000029984937 Rises=F Damp=F
 DIIS: error= 6.88D-05 at cycle   7 NSaved=   7.
 NSaved= 7 IEnMin= 7 EnMin= -1325.06389431235     IErMin= 7 ErrMin= 6.88D-05
 ErrMax= 6.88D-05  0.00D+00 EMaxC= 1.00D-01 BMatC= 2.74D-06 BMatP= 1.79D-05
 IDIUse=1 WtCom= 1.00D+00 WtEn= 0.00D+00
 Coeff-Com:  0.590D-02-0.113D-01-0.218D-01-0.339D-01-0.249D-02 0.294D+00
 Coeff-Com:  0.769D+00
 Coeff:      0.590D-02-0.113D-01-0.218D-01-0.339D-01-0.249D-02 0.294D+00
 Coeff:      0.769D+00
 Gap=     0.298 Goal=   None    Shift=    0.000
 RMSDP=6.43D-06 MaxDP=2.04D-04 DE=-3.00D-05 OVMax= 8.42D-04

 Initial convergence to 1.0D-05 achieved.  Increase integral accuracy.
 Cycle   8  Pass 1  IDiag  1:
 E= -1325.06391650314     Delta-E=       -0.000022190787 Rises=F Damp=F
 DIIS: error= 6.07D-05 at cycle   1 NSaved=   1.
 NSaved= 1 IEnMin= 1 EnMin= -1325.06391650314     IErMin= 1 ErrMin= 6.07D-05
 ErrMax= 6.07D-05  0.00D+00 EMaxC= 1.00D-01 BMatC= 2.19D-06 BMatP= 2.19D-06
 IDIUse=1 WtCom= 1.00D+00 WtEn= 0.00D+00
 Coeff-Com:  0.100D+01
 Coeff:      0.100D+01
 Gap=     0.298 Goal=   None    Shift=    0.000
 RMSDP=6.43D-06 MaxDP=2.04D-04 DE=-2.22D-05 OVMax= 5.49D-04

 Cycle   9  Pass 1  IDiag  1:
 RMSU=  2.65D-05    CP:  1.00D+00
 E= -1325.06391885064     Delta-E=       -0.000002347509 Rises=F Damp=F
 DIIS: error= 3.24D-05 at cycle   2 NSaved=   2.
 NSaved= 2 IEnMin= 2 EnMin= -1325.06391885064     IErMin= 2 ErrMin= 3.24D-05
 ErrMax= 3.24D-05  0.00D+00 EMaxC= 1.00D-01 BMatC= 4.36D-07 BMatP= 2.19D-06
 IDIUse=1 WtCom= 1.00D+00 WtEn= 0.00D+00
 Coeff-Com:  0.203D+00 0.797D+00
 Coeff:      0.203D+00 0.797D+00
 Gap=     0.298 Goal=   None    Shift=    0.000
 RMSDP=2.42D-06 MaxDP=1.47D-04 DE=-2.35D-06 OVMax= 2.55D-04

 Cycle  10  Pass 1  IDiag  1:
 RMSU=  2.13D-06    CP:  1.00D+00  1.04D+00
 E= -1325.06391912560     Delta-E=       -0.000000274959 Rises=F Damp=F
 DIIS: error= 3.16D-05 at cycle   3 NSaved=   3.
 NSaved= 3 IEnMin= 3 EnMin= -1325.06391912560     IErMin= 3 ErrMin= 3.16D-05
 ErrMax= 3.16D-05  0.00D+00 EMaxC= 1.00D-01 BMatC= 2.87D-07 BMatP= 4.36D-07
 IDIUse=1 WtCom= 1.00D+00 WtEn= 0.00D+00
 Coeff-Com: -0.410D-01 0.447D+00 0.594D+00
 Coeff:     -0.410D-01 0.447D+00 0.594D+00
 Gap=     0.298 Goal=   None    Shift=    0.000
 RMSDP=1.13D-06 MaxDP=6.86D-05 DE=-2.75D-07 OVMax= 1.58D-04

 Cycle  11  Pass 1  IDiag  1:
 RMSU=  8.76D-07    CP:  1.00D+00  1.06D+00  7.66D-01
 E= -1325.06391939145     Delta-E=       -0.000000265847 Rises=F Damp=F
 DIIS: error= 6.87D-06 at cycle   4 NSaved=   4.
 NSaved= 4 IEnMin= 4 EnMin= -1325.06391939145     IErMin= 4 ErrMin= 6.87D-06
 ErrMax= 6.87D-06  0.00D+00 EMaxC= 1.00D-01 BMatC= 9.25D-09 BMatP= 2.87D-07
 IDIUse=1 WtCom= 1.00D+00 WtEn= 0.00D+00
 Coeff-Com: -0.204D-01 0.722D-01 0.152D+00 0.796D+00
 Coeff:     -0.204D-01 0.722D-01 0.152D+00 0.796D+00
 Gap=     0.298 Goal=   None    Shift=    0.000
 RMSDP=4.12D-07 MaxDP=2.14D-05 DE=-2.66D-07 OVMax= 8.95D-05

 Cycle  12  Pass 1  IDiag  1:
 RMSU=  2.77D-07    CP:  1.00D+00  1.06D+00  8.46D-01  1.28D+00
 E= -1325.06391941680     Delta-E=       -0.000000025353 Rises=F Damp=F
 DIIS: error= 5.05D-06 at cycle   5 NSaved=   5.
 NSaved= 5 IEnMin= 5 EnMin= -1325.06391941680     IErMin= 5 ErrMin= 5.05D-06
 ErrMax= 5.05D-06  0.00D+00 EMaxC= 1.00D-01 BMatC= 4.54D-09 BMatP= 9.25D-09
 IDIUse=1 WtCom= 1.00D+00 WtEn= 0.00D+00
 Coeff-Com:  0.774D-02-0.167D+00-0.192D+00 0.407D+00 0.944D+00
 Coeff:      0.774D-02-0.167D+00-0.192D+00 0.407D+00 0.944D+00
 Gap=     0.298 Goal=   None    Shift=    0.000
 RMSDP=4.14D-07 MaxDP=1.66D-05 DE=-2.54D-08 OVMax= 7.92D-05

 Cycle  13  Pass 1  IDiag  1:
 RMSU=  1.31D-07    CP:  1.00D+00  1.07D+00  9.24D-01  1.68D+00  1.14D+00
 E= -1325.06391942933     Delta-E=       -0.000000012528 Rises=F Damp=F
 DIIS: error= 1.10D-06 at cycle   6 NSaved=   6.
 NSaved= 6 IEnMin= 6 EnMin= -1325.06391942933     IErMin= 6 ErrMin= 1.10D-06
 ErrMax= 1.10D-06  0.00D+00 EMaxC= 1.00D-01 BMatC= 4.06D-10 BMatP= 4.54D-09
 IDIUse=1 WtCom= 1.00D+00 WtEn= 0.00D+00
 Coeff-Com:  0.558D-02-0.780D-01-0.949D-01 0.105D+00 0.399D+00 0.663D+00
 Coeff:      0.558D-02-0.780D-01-0.949D-01 0.105D+00 0.399D+00 0.663D+00
 Gap=     0.298 Goal=   None    Shift=    0.000
 RMSDP=7.45D-08 MaxDP=4.31D-06 DE=-1.25D-08 OVMax= 1.70D-05

 Cycle  14  Pass 1  IDiag  1:
 RMSU=  4.09D-08    CP:  1.00D+00  1.07D+00  9.34D-01  1.74D+00  1.24D+00
                    CP:  9.90D-01
 E= -1325.06391943013     Delta-E=       -0.000000000794 Rises=F Damp=F
 DIIS: error= 3.81D-07 at cycle   7 NSaved=   7.
 NSaved= 7 IEnMin= 7 EnMin= -1325.06391943013     IErMin= 7 ErrMin= 3.81D-07
 ErrMax= 3.81D-07  0.00D+00 EMaxC= 1.00D-01 BMatC= 3.66D-11 BMatP= 4.06D-10
 IDIUse=1 WtCom= 1.00D+00 WtEn= 0.00D+00
 Coeff-Com:  0.811D-03-0.548D-02-0.718D-02-0.182D-01 0.125D-02 0.195D+00
 Coeff-Com:  0.834D+00
 Coeff:      0.811D-03-0.548D-02-0.718D-02-0.182D-01 0.125D-02 0.195D+00
 Coeff:      0.834D+00
 Gap=     0.298 Goal=   None    Shift=    0.000
 RMSDP=2.77D-08 MaxDP=9.91D-07 DE=-7.94D-10 OVMax= 4.54D-06

 Cycle  15  Pass 1  IDiag  1:
 RMSU=  1.23D-08    CP:  1.00D+00  1.07D+00  9.38D-01  1.76D+00  1.26D+00
                    CP:  1.09D+00  1.03D+00
 E= -1325.06391943016     Delta-E=       -0.000000000036 Rises=F Damp=F
 DIIS: error= 8.77D-08 at cycle   8 NSaved=   8.
 NSaved= 8 IEnMin= 8 EnMin= -1325.06391943016     IErMin= 8 ErrMin= 8.77D-08
 ErrMax= 8.77D-08  0.00D+00 EMaxC= 1.00D-01 BMatC= 8.14D-12 BMatP= 3.66D-11
 IDIUse=1 WtCom= 1.00D+00 WtEn= 0.00D+00
 Coeff-Com: -0.451D-03 0.900D-02 0.112D-01-0.213D-01-0.564D-01-0.661D-02
 Coeff-Com:  0.396D+00 0.669D+00
 Coeff:     -0.451D-03 0.900D-02 0.112D-01-0.213D-01-0.564D-01-0.661D-02
 Coeff:      0.396D+00 0.669D+00
 Gap=     0.298 Goal=   None    Shift=    0.000
 RMSDP=6.82D-09 MaxDP=4.30D-07 DE=-3.64D-11 OVMax= 8.81D-07

 SCF Done:  E(RwB97XD) =  -1325.06391943     A.U. after   15 cycles
            NFock= 15  Conv=0.68D-08     -V/T= 2.0060
 KE= 1.317168048099D+03 PE=-7.947324226925D+03 EE= 2.880589041758D+03
 Leave Link  502 at Sun Jun 23 09:10:46 2019, MaxMem=  4294967296 cpu:            6759.9 elap:             211.8
 (Enter /share/apps/g16/l601.exe)
 Copying SCF densities to generalized density rwf, IOpCl= 0 IROHF=0.

 **********************************************************************

            Population analysis using the SCF density.

 **********************************************************************

 Orbital symmetries:
       Occupied  (A) (A) (A) (A) (A) (A) (A) (A) (A) (A) (A) (A)
                 (A) (A) (A) (A) (A) (A) (A) (A) (A) (A) (A) (A)
                 (A) (A) (A) (A) (A) (A) (A) (A) (A) (A) (A) (A)
                 (A) (A) (A) (A) (A) (A) (A) (A) (A) (A) (A) (A)
                 (A) (A) (A) (A) (A) (A) (A) (A) (A) (A) (A) (A)
                 (A) (A) (A) (A) (A) (A) (A) (A) (A) (A) (A) (A)
                 (A) (A) (A) (A) (A) (A) (A) (A) (A) (A) (A) (A)
                 (A) (A) (A) (A) (A) (A) (A) (A) (A) (A) (A) (A)
                 (A)
       Virtual   (A) (A) (A) (A) (A) (A) (A) (A) (A) (A) (A) (A)
                 (A) (A) (A) (A) (A) (A) (A) (A) (A) (A) (A) (A)
                 (A) (A) (A) (A) (A) (A) (A) (A) (A) (A) (A) (A)
                 (A) (A) (A) (A) (A) (A) (A) (A) (A) (A) (A) (A)
                 (A) (A) (A) (A) (A) (A) (A) (A) (A) (A) (A) (A)
                 (A) (A) (A) (A) (A) (A) (A) (A) (A) (A) (A) (A)
                 (A) (A) (A) (A) (A) (A) (A) (A) (A) (A) (A) (A)
                 (A) (A) (A) (A) (A) (A) (A) (A) (A) (A) (A) (A)
                 (A) (A) (A) (A) (A) (A) (A) (A) (A) (A) (A) (A)
                 (A) (A) (A) (A) (A) (A) (A) (A) (A) (A) (A) (A)
                 (A) (A) (A) (A) (A) (A) (A) (A) (A) (A) (A) (A)
                 (A) (A) (A) (A) (A) (A) (A) (A) (A) (A) (A) (A)
                 (A) (A) (A) (A) (A) (A) (A) (A) (A) (A) (A) (A)
                 (A) (A) (A) (A) (A) (A) (A) (A) (A) (A) (A) (A)
                 (A) (A) (A) (A) (A) (A) (A) (A) (A) (A) (A) (A)
                 (A) (A) (A) (A) (A) (A) (A) (A) (A) (A) (A) (A)
                 (A) (A) (A) (A) (A) (A) (A) (A) (A) (A) (A) (A)
                 (A) (A) (A) (A) (A) (A) (A) (A) (A) (A) (A) (A)
                 (A) (A) (A) (A) (A) (A) (A) (A) (A) (A) (A) (A)
                 (A) (A) (A) (A) (A) (A) (A) (A) (A) (A) (A) (A)
                 (A) (A) (A) (A) (A) (A) (A) (A) (A) (A) (A) (A)
                 (A) (A) (A) (A) (A) (A) (A) (A) (A) (A) (A) (A)
                 (A) (A) (A) (A) (A) (A) (A) (A) (A) (A) (A) (A)
                 (A) (A) (A) (A) (A) (A) (A) (A) (A) (A) (A) (A)
                 (A) (A) (A) (A) (A) (A) (A) (A) (A) (A) (A) (A)
                 (A) (A) (A) (A) (A) (A) (A) (A) (A) (A) (A) (A)
                 (A) (A) (A) (A) (A) (A) (A) (A) (A) (A) (A) (A)
                 (A) (A) (A) (A) (A) (A) (A) (A) (A) (A) (A) (A)
                 (A) (A) (A) (A) (A) (A) (A) (A) (A) (A) (A) (A)
                 (A) (A) (A) (A) (A) (A) (A) (A) (A) (A) (A) (A)
                 (A) (A) (A) (A) (A) (A) (A)
 The electronic state is 1-A.
 Alpha  occ. eigenvalues --  -19.29327 -19.29014 -19.28906 -19.27541 -19.22930
 Alpha  occ. eigenvalues --  -19.17213 -14.52022 -14.49508 -14.48414 -14.45058
 Alpha  occ. eigenvalues --  -14.43496 -14.39440 -10.42999 -10.40968 -10.40862
 Alpha  occ. eigenvalues --  -10.37738 -10.37661 -10.37627 -10.36918 -10.36757
 Alpha  occ. eigenvalues --  -10.36503 -10.36366 -10.34468 -10.32794 -10.32100
 Alpha  occ. eigenvalues --  -10.27684  -1.19763  -1.15805  -1.15598  -1.14766
 Alpha  occ. eigenvalues --   -1.13201  -1.11548  -1.08927  -1.06585  -1.04634
 Alpha  occ. eigenvalues --   -1.02897  -0.98915  -0.95171  -0.91309  -0.90182
 Alpha  occ. eigenvalues --   -0.87846  -0.86724  -0.80351  -0.79247  -0.77320
 Alpha  occ. eigenvalues --   -0.75525  -0.74128  -0.73068  -0.70754  -0.69495
 Alpha  occ. eigenvalues --   -0.67998  -0.66833  -0.64786  -0.64227  -0.63549
 Alpha  occ. eigenvalues --   -0.62602  -0.61870  -0.60072  -0.59953  -0.58491
 Alpha  occ. eigenvalues --   -0.57805  -0.57400  -0.56610  -0.55492  -0.55117
 Alpha  occ. eigenvalues --   -0.54627  -0.54540  -0.53195  -0.52768  -0.51228
 Alpha  occ. eigenvalues --   -0.50305  -0.49878  -0.49286  -0.48383  -0.48178
 Alpha  occ. eigenvalues --   -0.48058  -0.47474  -0.46843  -0.46367  -0.44585
 Alpha  occ. eigenvalues --   -0.44213  -0.43861  -0.42846  -0.40428  -0.39654
 Alpha  occ. eigenvalues --   -0.38951  -0.38468  -0.37868  -0.36971  -0.36073
 Alpha  occ. eigenvalues --   -0.35065  -0.34090  -0.32339  -0.32146  -0.30343
 Alpha  occ. eigenvalues --   -0.29714  -0.27421
 Alpha virt. eigenvalues --    0.02335   0.06215   0.07733   0.11094   0.11238
 Alpha virt. eigenvalues --    0.11994   0.12118   0.14063   0.14510   0.15164
 Alpha virt. eigenvalues --    0.15624   0.16225   0.17664   0.18327   0.18561
 Alpha virt. eigenvalues --    0.18948   0.19829   0.20686   0.20841   0.21795
 Alpha virt. eigenvalues --    0.21861   0.22373   0.22757   0.23969   0.24403
 Alpha virt. eigenvalues --    0.24926   0.25705   0.25872   0.26879   0.27136
 Alpha virt. eigenvalues --    0.28517   0.30212   0.30618   0.31129   0.31940
 Alpha virt. eigenvalues --    0.32675   0.34408   0.34929   0.35535   0.36821
 Alpha virt. eigenvalues --    0.37660   0.38722   0.40454   0.40972   0.41603
 Alpha virt. eigenvalues --    0.42134   0.43119   0.44245   0.44530   0.45883
 Alpha virt. eigenvalues --    0.47649   0.49397   0.49455   0.50000   0.50682
 Alpha virt. eigenvalues --    0.51219   0.52385   0.52652   0.53023   0.54582
 Alpha virt. eigenvalues --    0.55983   0.56184   0.56670   0.56959   0.57153
 Alpha virt. eigenvalues --    0.57630   0.58349   0.58912   0.59467   0.59796
 Alpha virt. eigenvalues --    0.60348   0.60959   0.61076   0.61455   0.62393
 Alpha virt. eigenvalues --    0.62758   0.63167   0.63767   0.64718   0.65007
 Alpha virt. eigenvalues --    0.65909   0.66594   0.67006   0.67073   0.68057
 Alpha virt. eigenvalues --    0.68558   0.68740   0.69187   0.70290   0.70615
 Alpha virt. eigenvalues --    0.70929   0.72291   0.72417   0.72933   0.73479
 Alpha virt. eigenvalues --    0.74456   0.74542   0.75331   0.75587   0.75827
 Alpha virt. eigenvalues --    0.76879   0.78474   0.78778   0.79722   0.80489
 Alpha virt. eigenvalues --    0.81082   0.81784   0.81987   0.83105   0.83191
 Alpha virt. eigenvalues --    0.84580   0.85373   0.87086   0.88212   0.91115
 Alpha virt. eigenvalues --    0.91351   0.92242   0.92394   0.93144   0.93760
 Alpha virt. eigenvalues --    0.94119   0.95074   0.96142   0.97257   0.97842
 Alpha virt. eigenvalues --    0.99227   1.00042   1.01116   1.01866   1.02540
 Alpha virt. eigenvalues --    1.03137   1.03867   1.05474   1.05920   1.06443
 Alpha virt. eigenvalues --    1.06799   1.07473   1.08631   1.09671   1.10276
 Alpha virt. eigenvalues --    1.11418   1.11840   1.12683   1.14013   1.14355
 Alpha virt. eigenvalues --    1.14925   1.16076   1.16309   1.17274   1.17881
 Alpha virt. eigenvalues --    1.18115   1.18899   1.19637   1.21398   1.22109
 Alpha virt. eigenvalues --    1.22522   1.22877   1.23668   1.24720   1.25025
 Alpha virt. eigenvalues --    1.26422   1.26870   1.27228   1.28569   1.29320
 Alpha virt. eigenvalues --    1.30670   1.31041   1.31522   1.32093   1.32378
 Alpha virt. eigenvalues --    1.33303   1.35329   1.35650   1.36142   1.37965
 Alpha virt. eigenvalues --    1.39141   1.39893   1.40692   1.41459   1.43629
 Alpha virt. eigenvalues --    1.44021   1.45488   1.45871   1.47172   1.48808
 Alpha virt. eigenvalues --    1.49086   1.49913   1.51007   1.51632   1.52634
 Alpha virt. eigenvalues --    1.53238   1.53667   1.55107   1.55676   1.56442
 Alpha virt. eigenvalues --    1.57582   1.58806   1.59077   1.60475   1.60880
 Alpha virt. eigenvalues --    1.61581   1.63728   1.63946   1.64837   1.65096
 Alpha virt. eigenvalues --    1.65942   1.66705   1.67417   1.68890   1.69609
 Alpha virt. eigenvalues --    1.70382   1.70467   1.70749   1.71781   1.72228
 Alpha virt. eigenvalues --    1.72883   1.73124   1.73810   1.74275   1.74991
 Alpha virt. eigenvalues --    1.75358   1.76318   1.76488   1.77638   1.78511
 Alpha virt. eigenvalues --    1.79128   1.79648   1.80606   1.81000   1.81542
 Alpha virt. eigenvalues --    1.82399   1.83047   1.84013   1.84649   1.85193
 Alpha virt. eigenvalues --    1.85713   1.87225   1.87655   1.88011   1.88328
 Alpha virt. eigenvalues --    1.90050   1.90751   1.90981   1.91469   1.91949
 Alpha virt. eigenvalues --    1.92969   1.93726   1.94604   1.95819   1.96559
 Alpha virt. eigenvalues --    1.98279   1.98509   1.99321   2.00533   2.02340
 Alpha virt. eigenvalues --    2.03404   2.03835   2.04175   2.04507   2.05679
 Alpha virt. eigenvalues --    2.06763   2.08003   2.09136   2.11382   2.11848
 Alpha virt. eigenvalues --    2.12082   2.12368   2.12884   2.13709   2.14803
 Alpha virt. eigenvalues --    2.15698   2.16541   2.18321   2.18761   2.19694
 Alpha virt. eigenvalues --    2.22700   2.22886   2.24060   2.24608   2.25872
 Alpha virt. eigenvalues --    2.26990   2.27285   2.27558   2.29121   2.29596
 Alpha virt. eigenvalues --    2.30283   2.32132   2.32689   2.34241   2.35334
 Alpha virt. eigenvalues --    2.36193   2.38552   2.40596   2.44074   2.44494
 Alpha virt. eigenvalues --    2.45204   2.46192   2.47011   2.48286   2.48813
 Alpha virt. eigenvalues --    2.49067   2.49799   2.51716   2.52541   2.52848
 Alpha virt. eigenvalues --    2.54504   2.55765   2.56903   2.57740   2.59041
 Alpha virt. eigenvalues --    2.59581   2.59918   2.63185   2.63574   2.64183
 Alpha virt. eigenvalues --    2.65784   2.66698   2.69611   2.70530   2.71151
 Alpha virt. eigenvalues --    2.72064   2.74382   2.75644   2.79094   2.80088
 Alpha virt. eigenvalues --    2.82670   2.84730   2.86453   2.87132   2.90544
 Alpha virt. eigenvalues --    2.90990   2.92177   2.96224   2.98845   2.99790
 Alpha virt. eigenvalues --    3.01154   3.02208   3.04045   3.04102   3.04788
 Alpha virt. eigenvalues --    3.07887   3.08975   3.10395   3.11811   3.14201
 Alpha virt. eigenvalues --    3.15633   3.16585   3.18764   3.21949   3.22361
 Alpha virt. eigenvalues --    3.25934   3.26367   3.35065   3.39768   3.40847
 Alpha virt. eigenvalues --    3.45504   3.45832   3.49835   3.54064   3.55368
 Alpha virt. eigenvalues --    3.56556   3.60371   3.64443   3.65283   3.79338
 Alpha virt. eigenvalues --    3.80903   3.86464
          Condensed to atoms (all electrons):
               1          2          3          4          5          6
     1  C    4.515764   0.399601   0.381836   0.400032   0.347978  -0.056292
     2  H    0.399601   0.598746  -0.026150  -0.028390  -0.023519   0.001943
     3  H    0.381836  -0.026150   0.650985  -0.025832  -0.021297  -0.005031
     4  H    0.400032  -0.028390  -0.025832   0.599284  -0.024180   0.002306
     5  N    0.347978  -0.023519  -0.021297  -0.024180   6.473621   0.446449
     6  C   -0.056292   0.001943  -0.005031   0.002306   0.446449   4.650754
     7  H   -0.010058   0.000319   0.000500   0.000354  -0.032563   0.393685
     8  C    0.007252  -0.000276   0.001576  -0.000315  -0.038860   0.559491
     9  H   -0.000044   0.000004  -0.000004   0.000004   0.003100  -0.035585
    10  C   -0.033888  -0.002054   0.005712  -0.002008   0.309424  -0.074494
    11  O    0.013841   0.005565   0.001460   0.004912  -0.098146  -0.000408
    12  N    0.004803   0.000133  -0.000161   0.000105  -0.069773  -0.036359
    13  C    0.000200   0.000049  -0.000256   0.000068  -0.013786  -0.027770
    14  N    0.000010   0.000000  -0.000000   0.000000   0.000149   0.002834
    15  H   -0.000002  -0.000000   0.000000   0.000000   0.000126  -0.000068
    16  H    0.000000  -0.000000  -0.000000   0.000000  -0.000015   0.000980
    17  H    0.000000   0.000000   0.000000  -0.000000   0.000000   0.000000
[...]
    46  H   -0.000312   0.000004  -0.000156   0.000770   0.004845  -0.000092
              25         26         27         28         29         30
     1  C   -0.000000   0.000000   0.000000  -0.000000   0.000000  -0.000000
     2  H   -0.000000   0.000000   0.000000  -0.000000  -0.000000   0.000000
     3  H    0.000000  -0.000000   0.000000  -0.000000   0.000000  -0.000000
     4  H    0.000000  -0.000000  -0.000000   0.000000   0.000000  -0.000000
     5  N    0.000000   0.000000   0.000000   0.000000   0.000000   0.000000
     6  C   -0.000001   0.000011  -0.000000  -0.000000  -0.000000  -0.000000
     7  H   -0.000000   0.000000  -0.000000  -0.000000  -0.000000   0.000000
     8  C    0.000016   0.000123  -0.000038  -0.000001  -0.000000   0.000000
     9  H   -0.000052  -0.000048   0.000367   0.000003   0.000001  -0.000003
    10  C   -0.000000   0.000001   0.000000  -0.000000  -0.000000   0.000000
    11  O   -0.000000   0.000000  -0.000000  -0.000000  -0.000000   0.000000
    12  N    0.000000  -0.000022   0.000000  -0.000000  -0.000000   0.000000
    13  C   -0.000062   0.000980   0.000028   0.000001   0.000000   0.000000
    14  N   -0.004979   0.013091   0.000326   0.000003   0.000000   0.000000
    15  H    0.000248  -0.001192  -0.000170  -0.000013  -0.000001  -0.000000
    16  H    0.001482  -0.007700  -0.002924   0.000005  -0.000017   0.000016
    17  H    0.000053  -0.000001   0.000007   0.000874  -0.003941  -0.000026
    18  O   -0.000191  -0.000001   0.000098  -0.020976   0.066602  -0.000183
    19  C    0.002652  -0.000413   0.000614   0.000436  -0.008296   0.000010
    20  H   -0.000383  -0.000033   0.000038  -0.000261   0.000275  -0.000018
    21  H   -0.000274   0.000030  -0.000018  -0.000255   0.002049   0.000005
    22  C   -0.110756   0.000719   0.007019  -0.000698  -0.012071  -0.000436
    23  H   -0.003650   0.000642  -0.000604   0.000421   0.000525   0.000022
    24  O    0.335958  -0.015021  -0.059707   0.012340   0.012443   0.001475
    25  C    4.803452   0.379616   0.256798  -0.057779  -0.009210   0.003539
    26  H    0.379616   0.618429  -0.036900   0.005604   0.000761  -0.000139
    27  N    0.256798  -0.036900   6.615887   0.408865  -0.037055  -0.031301
    28  C   -0.057779   0.005604   0.408865   4.690572   0.329908   0.575351
    29  H   -0.009210   0.000761  -0.037055   0.329908   0.637962  -0.023823
    30  C    0.003539  -0.000139  -0.031301   0.575351  -0.023823   5.022498
    31  H   -0.000081   0.000011   0.003484  -0.024073  -0.010722   0.391513
    32  C   -0.042456  -0.010362   0.343142  -0.063293  -0.000177  -0.015156
    33  O   -0.000719   0.028065  -0.082848  -0.000252  -0.000254   0.000958
    34  N    0.002812   0.000940  -0.067706  -0.026264  -0.000564  -0.066031
    35  C    0.000025  -0.000142  -0.019454  -0.032619   0.005684   0.326263
    36  N    0.000006   0.000001   0.000129   0.003054  -0.000138  -0.078115
    37  H   -0.000001   0.000000   0.000087  -0.000536   0.000012   0.011855
    38  H   -0.000001  -0.000000  -0.000005   0.001059   0.000009  -0.014092
    39  C    0.353676  -0.025183  -0.034025  -0.006095  -0.002750  -0.000186
    40  H   -0.042751  -0.000035   0.004447   0.001044   0.000344  -0.000277
    41  O   -0.035298  -0.006272   0.002038   0.000120  -0.000032   0.000003
    42  H   -0.005363   0.007914   0.000815   0.000043   0.000004  -0.000001
    43  C   -0.037254   0.002780  -0.002326   0.003217  -0.002245   0.000218
    44  H    0.003498  -0.000327  -0.000727   0.005426  -0.002088   0.001159
    45  O    0.002202  -0.000157   0.000020  -0.000004  -0.000021  -0.000000
    46  H    0.001512  -0.000049  -0.000057   0.000006  -0.000007   0.000000
              31         32         33         34         35         36
     1  C   -0.000000   0.000000   0.000000   0.000000   0.000000   0.000000
     2  H    0.000000  -0.000000  -0.000000  -0.000000  -0.000000  -0.000000
     3  H   -0.000000   0.000000   0.000000   0.000000   0.000000  -0.000000
     4  H    0.000000   0.000000  -0.000000   0.000000   0.000000  -0.000000
     5  N    0.000000  -0.000000  -0.000000   0.000000   0.000000  -0.000000
     6  C   -0.000000   0.000002   0.000237   0.000000  -0.000000   0.000000
     7  H    0.000000  -0.000001  -0.000021  -0.000000  -0.000000   0.000000
     8  C    0.000000  -0.000285  -0.005271   0.000015  -0.000001   0.000000
     9  H   -0.000000   0.000468   0.027324  -0.000164   0.000012  -0.000000
    10  C   -0.000000   0.000000  -0.000001   0.000000   0.000000  -0.000000
    11  O    0.000000   0.000000   0.000000   0.000000   0.000000   0.000000
    12  N   -0.000000  -0.000001  -0.000006  -0.000000  -0.000000  -0.000000
    13  C    0.000000   0.000014  -0.006711  -0.000001   0.000000  -0.000000
    14  N    0.000000  -0.001161  -0.016723  -0.000005   0.000000  -0.000000
    15  H   -0.000000   0.000132   0.000426   0.000003   0.000000   0.000000
    16  H    0.000000  -0.000148   0.052682   0.000190  -0.000048   0.000001
    17  H    0.000007   0.000001  -0.000000  -0.000000   0.000001  -0.000000
    18  O    0.000002  -0.000005   0.000000   0.000000  -0.000009  -0.000000
    19  C    0.000007   0.000027   0.000000  -0.000000   0.000000   0.000000
    20  H   -0.000002   0.000003   0.000000   0.000000   0.000000  -0.000000
    21  H    0.000000  -0.000001   0.000000   0.000000  -0.000000  -0.000000
    22  C   -0.000004  -0.000069   0.000023   0.000001   0.000008  -0.000000
    23  H    0.000000  -0.000025  -0.000000  -0.000000  -0.000001  -0.000000
    24  O    0.000017   0.000779   0.000119  -0.000028  -0.000075  -0.000000
    25  C   -0.000081  -0.042456  -0.000719   0.002812   0.000025   0.000006
    26  H    0.000011  -0.010362   0.028065   0.000940  -0.000142   0.000001
    27  N    0.003484   0.343142  -0.082848  -0.067706  -0.019454   0.000129
    28  C   -0.024073  -0.063293  -0.000252  -0.026264  -0.032619   0.003054
    29  H   -0.010722  -0.000177  -0.000254  -0.000564   0.005684  -0.000138
    30  C    0.391513  -0.015156   0.000958  -0.066031   0.326263  -0.078115
    31  H    0.660706   0.001184   0.000015   0.004217  -0.031087  -0.005894
    32  C    0.001184   4.362176   0.666774   0.524982  -0.075966   0.000244
    33  O    0.000015   0.666774   7.753867  -0.057509  -0.002196  -0.000011
    34  N    0.004217   0.524982  -0.057509   6.437004   0.596761  -0.063929
    35  C   -0.031087  -0.075966  -0.002196   0.596761   4.587145   0.514782
    36  N   -0.005894   0.000244  -0.000011  -0.063929   0.514782   5.970640
    37  H   -0.000363  -0.000019  -0.000045   0.003992  -0.004973   0.362105
    38  H    0.000933  -0.000097   0.000003   0.004266  -0.009767   0.384803
    39  C   -0.000004  -0.000722  -0.001802  -0.000218  -0.000013  -0.000000
    40  H   -0.000004   0.000730  -0.000359  -0.000096   0.000010  -0.000000
    41  O    0.000000   0.000017   0.000016   0.000000  -0.000000   0.000000
    42  H    0.000000  -0.000236  -0.000603  -0.000005   0.000000  -0.000000
    43  C    0.000023  -0.000090  -0.000014  -0.000000  -0.000017   0.000000
    44  H    0.000039   0.000040   0.000002  -0.000002  -0.000012   0.000000
    45  O    0.000000   0.000001   0.000000  -0.000000   0.000000  -0.000000
    46  H    0.000000  -0.000001  -0.000000  -0.000000  -0.000000   0.000000
              37         38         39         40         41         42
     1  C    0.000000  -0.000000  -0.000000  -0.000000  -0.000000   0.000000
     2  H   -0.000000  -0.000000  -0.000000  -0.000000  -0.000000   0.000000
     3  H    0.000000   0.000000  -0.000000  -0.000000  -0.000000   0.000000
     4  H   -0.000000   0.000000   0.000000   0.000000   0.000000  -0.000000
     5  N    0.000000   0.000000  -0.000000   0.000000  -0.000000   0.000000
     6  C    0.000000  -0.000000  -0.000000  -0.000001   0.000000  -0.000008
     7  H   -0.000000  -0.000000  -0.000000  -0.000000   0.000000   0.000000
     8  C   -0.000000  -0.000000  -0.000039   0.000009  -0.000030   0.000287
     9  H    0.000001   0.000000   0.000011   0.000013  -0.000004   0.000066
    10  C   -0.000000  -0.000000  -0.000000  -0.000000   0.000000   0.000003
    11  O    0.000000   0.000000   0.000000   0.000000  -0.000000   0.000000
    12  N    0.000000   0.000000   0.000001  -0.000008   0.000006  -0.000225
    13  C   -0.000000   0.000000  -0.000090  -0.000037  -0.000343   0.001198
    14  N   -0.000000   0.000000   0.001025   0.000285  -0.007411   0.033070
    15  H    0.000000  -0.000000   0.001736  -0.002364   0.015106  -0.004312
    16  H    0.000000  -0.000000   0.002647   0.001354  -0.000166  -0.004615
    17  H    0.000000  -0.000000  -0.000015   0.000001   0.000000   0.000000
    18  O   -0.000000  -0.000000   0.000136  -0.000009  -0.000000  -0.000000
    19  C   -0.000000   0.000000   0.007091  -0.000082   0.000451   0.000091
    20  H   -0.000000  -0.000000  -0.000226   0.000010  -0.000005  -0.000006
    21  H   -0.000000   0.000000   0.000537  -0.000021  -0.000026  -0.000001
    22  C   -0.000000  -0.000000  -0.088901   0.012116   0.014488   0.001149
    23  H    0.000000   0.000000  -0.003266   0.000387   0.007974   0.000397
    24  O    0.000000   0.000000  -0.047078   0.002905   0.000519   0.000305
    25  C   -0.000001  -0.000001   0.353676  -0.042751  -0.035298  -0.005363
    26  H    0.000000  -0.000000  -0.025183  -0.000035  -0.006272   0.007914
    27  N    0.000087  -0.000005  -0.034025   0.004447   0.002038   0.000815
    28  C   -0.000536   0.001059  -0.006095   0.001044   0.000120   0.000043
    29  H    0.000012   0.000009  -0.002750   0.000344  -0.000032   0.000004
    30  C    0.011855  -0.014092  -0.000186  -0.000277   0.000003  -0.000001
    31  H   -0.000363   0.000933  -0.000004  -0.000004   0.000000   0.000000
    32  C   -0.000019  -0.000097  -0.000722   0.000730   0.000017  -0.000236
    33  O   -0.000045   0.000003  -0.001802  -0.000359   0.000016  -0.000603
    34  N    0.003992   0.004266  -0.000218  -0.000096   0.000000  -0.000005
    35  C   -0.004973  -0.009767  -0.000013   0.000010  -0.000000   0.000000
    36  N    0.362105   0.384803  -0.000000  -0.000000   0.000000  -0.000000
    37  H    0.527528  -0.028484   0.000000   0.000000  -0.000000  -0.000000
    38  H   -0.028484   0.543300   0.000000  -0.000000  -0.000000   0.000000
    39  C    0.000000   0.000000   4.805147   0.397990   0.323596  -0.051944
    40  H    0.000000  -0.000000   0.397990   0.663893  -0.031270   0.004997
    41  O   -0.000000  -0.000000   0.323596  -0.031270   7.677545   0.364227
    42  H   -0.000000   0.000000  -0.051944   0.004997   0.364227   0.487836
    43  C   -0.000000   0.000000   0.358366  -0.039011  -0.062123   0.001849
    44  H   -0.000000   0.000000  -0.029597  -0.007023   0.002303  -0.000139
    45  O    0.000000  -0.000000  -0.029392   0.002020  -0.003865   0.000051
    46  H    0.000000   0.000000  -0.018720   0.000196   0.024226  -0.000663
              43         44         45         46
     1  C   -0.000000  -0.000000   0.000000  -0.000000
     2  H   -0.000000   0.000000   0.000000   0.000000
     3  H   -0.000000   0.000000   0.000000   0.000000
     4  H    0.000000  -0.000000  -0.000000  -0.000000
     5  N   -0.000000   0.000000  -0.000000   0.000000
     6  C   -0.000000  -0.000000   0.000000  -0.000000
     7  H    0.000000   0.000000  -0.000000  -0.000000
     8  C   -0.000001   0.000000   0.000000   0.000000
     9  H   -0.000000   0.000000   0.000000   0.000000
    10  C   -0.000000   0.000000   0.000000  -0.000000
    11  O    0.000000  -0.000000  -0.000000   0.000000
    12  N    0.000000  -0.000000  -0.000000   0.000000
    13  C    0.000001  -0.000000   0.000000  -0.000001
    14  N    0.000116   0.000002  -0.000000  -0.000005
    15  H    0.000280  -0.000004  -0.000006   0.000032
    16  H    0.000094   0.000012  -0.000000  -0.000002
    17  H    0.000064  -0.000498  -0.000020   0.000003
    18  O   -0.001449   0.011444  -0.000107  -0.000027
    19  C   -0.036971  -0.007554   0.002002  -0.000312
    20  H    0.008363   0.001147  -0.000174   0.000004
    21  H   -0.008392  -0.002356   0.005697  -0.000156
    22  C    0.272008  -0.043843  -0.043394   0.000770
    23  H   -0.036104   0.006631   0.000833   0.004845
    24  O   -0.043405   0.000450   0.001430  -0.000092
    25  C   -0.037254   0.003498   0.002202   0.001512
    26  H    0.002780  -0.000327  -0.000157  -0.000049
    27  N   -0.002326  -0.000727   0.000020  -0.000057
    28  C    0.003217   0.005426  -0.000004   0.000006
    29  H   -0.002245  -0.002088  -0.000021  -0.000007
    30  C    0.000218   0.001159  -0.000000   0.000000
    31  H    0.000023   0.000039   0.000000   0.000000
    32  C   -0.000090   0.000040   0.000001  -0.000001
    33  O   -0.000014   0.000002   0.000000  -0.000000
    34  N   -0.000000  -0.000002  -0.000000  -0.000000
    35  C   -0.000017  -0.000012   0.000000  -0.000000
    36  N    0.000000   0.000000  -0.000000   0.000000
    37  H   -0.000000  -0.000000   0.000000   0.000000
    38  H    0.000000   0.000000  -0.000000   0.000000
    39  C    0.358366  -0.029597  -0.029392  -0.018720
    40  H   -0.039011  -0.007023   0.002020   0.000196
    41  O   -0.062123   0.002303  -0.003865   0.024226
    42  H    0.001849  -0.000139   0.000051  -0.000663
    43  C    4.817342   0.393751   0.351954  -0.059550
    44  H    0.393751   0.642119  -0.020986   0.007618
    45  O    0.351954  -0.020986   7.649445   0.364233
    46  H   -0.059550   0.007618   0.364233   0.516819
 Mulliken charges:
               1
     1  C    0.045439
     2  H    0.070985
     3  H    0.035226
     4  H    0.071961
     5  N   -0.260396
     6  C    0.175667
     7  H    0.040276
     8  C   -0.114336
     9  H    0.028169
    10  C    0.248337
    11  O   -0.338428
    12  N   -0.281140
    13  C    0.109067
    14  N   -0.156938
    15  H    0.125688
    16  H    0.137901
    17  H    0.161222
    18  O   -0.265523
    19  C    0.154009
    20  H    0.045228
    21  H    0.045164
    22  C    0.073024
    23  H    0.031469
    24  O   -0.317536
    25  C    0.203716
    26  H    0.044280
    27  N   -0.268345
    28  C    0.194768
    29  H    0.056833
    30  C   -0.105098
    31  H    0.010078
    32  C    0.309557
    33  O   -0.355167
    34  N   -0.292660
    35  C    0.145688
    36  N   -0.087678
    37  H    0.128841
    38  H    0.118074
    39  C    0.088306
    40  H    0.030594
    41  O   -0.285791
    42  H    0.163818
    43  C    0.118525
    44  H    0.039512
    45  O   -0.281762
    46  H    0.159378
 Sum of Mulliken charges =  -0.00000
 Mulliken charges with hydrogens summed into heavy atoms:
               1
     1  C    0.223611
     5  N   -0.260396
     6  C    0.215942
     8  C   -0.086167
    10  C    0.248337
    11  O   -0.338428
    12  N   -0.281140
    13  C    0.109067
    14  N    0.106651
    18  O   -0.104301
    19  C    0.244401
    22  C    0.104493
    24  O   -0.317536
    25  C    0.247996
    27  N   -0.268345
    28  C    0.251601
    30  C   -0.095021
    32  C    0.309557
    33  O   -0.355167
    34  N   -0.292660
    35  C    0.145688
    36  N    0.159237
    39  C    0.118899
    41  O   -0.121972
    43  C    0.158038
    45  O   -0.122385
 Electronic spatial extent (au):  <R**2>=          13042.2061
 Charge=              0.0000 electrons
 Dipole moment (field-independent basis, Debye):
    X=            -10.9097    Y=              6.8632    Z=             -0.9541  Tot=             12.9243
 Quadrupole moment (field-independent basis, Debye-Ang):
   XX=           -134.4260   YY=           -133.9407   ZZ=           -152.5578
   XY=             16.9985   XZ=             -3.4457   YZ=             13.3391
 Traceless Quadrupole moment (field-independent basis, Debye-Ang):
   XX=              5.8822   YY=              6.3674   ZZ=            -12.2496
   XY=             16.9985   XZ=             -3.4457   YZ=             13.3391
 Octapole moment (field-independent basis, Debye-Ang**2):
  XXX=           -328.4271  YYY=            139.3078  ZZZ=             -0.8239  XYY=           -145.5488
  XXY=            233.0316  XXZ=            -90.6889  XZZ=             -5.4153  YZZ=             -4.1189
  YYZ=              3.0609  XYZ=            -36.9697
 Hexadecapole moment (field-independent basis, Debye-Ang**3):
 XXXX=         -11218.6937 YYYY=          -2895.9123 ZZZZ=           -508.8326 XXXY=           1134.7168
 XXXZ=           -102.1848 YYYX=           -337.4791 YYYZ=            193.7264 ZZZX=             38.7722
 ZZZY=              1.1312 XXYY=          -2566.9250 XXZZ=          -2134.5627 YYZZ=           -736.7885
 XXYZ=            252.7522 YYXZ=            -56.6316 ZZXY=             -8.1096
 N-N= 2.425351514816D+03 E-N=-7.949045925014D+03  KE= 1.317292077996D+03
 No NMR shielding tensors so no spin-rotation constants.
 Leave Link  601 at Sun Jun 23 10:17:42 2019, MaxMem=  4294967296 cpu:              21.8 elap:               0.8
 (Enter /share/apps/g16/l9999.exe)
 1\1\GINC-COMPUTE-0-2\FOpt\RwB97XD\CC-pVDZ\C14H20N6O6\BHATTA\23-Jun-201
 9\0\\#p opt=modredundant wb97xd/cc-pvdz scf=(maxcycles=25)\\basepair\\
 0,1\C,-23.9559967915,156.7410009819,163.2519988893\H,-22.8756358004,15
 6.6434301538,163.4195866982\H,-24.2235168755,156.3793899738,162.250910
 3139\H,-24.4713357974,156.1530798001,164.0220490408\N,-24.3499989272,1
 58.1540050885,163.3630028877\C,-24.9119855787,158.8449986306,162.33699
 79477\H,-25.0744844212,158.2949632088,161.4088178217\C,-25.2390504158,
 160.1399970914,162.4770061688\H,-25.6865007575,160.7071161138,161.6613
 126518\C,-24.0830012487,158.7909996884,164.5710004403\O,-23.548,158.12
 6,165.475\N,-24.4100333754,160.0979902691,164.7370121367\C,-24.9699419
 465,160.7639299815,163.7314929083\N,-25.2680893859,162.0504919081,163.
 9224119401\H,-24.6754366692,162.494808026,164.6173113152\H,-25.4680021
 146,162.572565263,163.0644805008\H,-28.6007713723,169.4186828888,163.3
 148835902\O,-27.9939983038,168.682997663,163.4379990813\C,-28.43000401
 88,167.9290007791,164.5509997976\H,-29.4992376428,167.6649233623,164.4
 672546883\H,-28.2888905551,168.5020272029,165.4861749728\C,-27.6439971
 095,166.655003962,164.6929940874\H,-27.8652165658,166.2249607556,165.6
 853970061\O,-28.04199721,165.7110063435,163.6759954226\C,-26.939999034
 2,164.9399900227,163.2800057547\H,-27.1650365039,163.8682838087,163.35
 2064568\N,-26.7160011344,165.1809878089,161.836997589\C,-26.8319983393
 ,166.4440004401,161.3160005526\H,-27.1180152479,167.228238288,162.0191
 813596\C,-26.6720005008,166.6950001165,160.0139996365\H,-26.7754454762
 ,167.7063173532,159.6248418948\C,-26.4939988667,164.0910000871,160.990
 000185\O,-26.413,162.948,161.483\N,-26.3439981996,164.3290002148,159.6
 620002345\C,-26.4299990881,165.5749998794,159.1810004267\N,-26.2710016
 705,165.7519998084,157.8649997724\H,-26.1218615208,164.9388089523,157.
 2834560697\H,-26.3403347966,166.6638062163,157.4422835615\C,-25.755996
 0618,165.3529979757,164.1529899013\H,-24.7934190705,165.2817577518,163
 .6217075022\O,-25.763876533,164.5276097528,165.3060935979\H,-26.121275
 0311,163.6589291222,165.0768472437\C,-26.1400293177,166.7729936756,164
 .5329962467\H,-25.8720560364,167.4838178092,163.7419092766\O,-25.52500
 6942,167.2239978309,165.7270043949\H,-25.5083302755,166.4538329319,166
 .3139815082\\Version=EM64L-G16RevA.03\State=1-A\HF=-1325.089237\RMSD=8
 .122e-09\RMSF=4.453e-06\Dipole=-1.7517619,3.5488936,-3.1924604\Quadrup
 ole=-9.5560477,6.9299887,2.626059,-3.7245618,-12.8990604,8.5729948\PG=
 C01 [X(C14H20N6O6)]\\@


 EDUCATION IS NOT TRAINING BUT RATHER THE PROCESS THAT EQUIPS YOU TO
 ENTERTAIN YOURSELF, A FRIEND, OR AN IDEA.  -- WALLACE STERLING
 Job cpu time:       1 days 13 hours 24 minutes  1.8 seconds.
 Elapsed time:       0 days  1 hours 10 minutes 33.1 seconds.
 File lengths (MBytes):  RWF=    138 Int=      0 D2E=      0 Chk=     18 Scr=      1
 Normal termination of Gaussian 16 at Sun Jun 23 10:17:42 2019.
